 Entering Gaussian System, Link 0=g03
 Initial command:
 /tftpboot/usr/local/g03/l1.exe /home/lello/jobs/c2h4/Gau-21614.inp -scrdir=/home/lello/jobs/c2h4/
 Entering Link 1 = /tftpboot/usr/local/g03/l1.exe PID=     21615.
  
 Copyright (c) 1988,1990,1992,1993,1995,1998,2003, Gaussian, Inc.
                  All Rights Reserved.
  
 This is the Gaussian(R) 03 program.  It is based on the
 the Gaussian(R) 98 system (copyright 1998, Gaussian, Inc.),
 the Gaussian(R) 94 system (copyright 1995, Gaussian, Inc.),
 the Gaussian 92(TM) system (copyright 1992, Gaussian, Inc.),
 the Gaussian 90(TM) system (copyright 1990, Gaussian, Inc.),
 the Gaussian 88(TM) system (copyright 1988, Gaussian, Inc.),
 the Gaussian 86(TM) system (copyright 1986, Carnegie Mellon
 University), and the Gaussian 82(TM) system (copyright 1983,
 Carnegie Mellon University). Gaussian is a federally registered
 trademark of Gaussian, Inc.
  
 This software contains proprietary and confidential information,
 including trade secrets, belonging to Gaussian, Inc.
  
 This software is provided under written license and may be
 used, copied, transmitted, or stored only in accord with that
 written license.
  
 The following legend is applicable only to US Government
 contracts under DFARS:
  
                    RESTRICTED RIGHTS LEGEND
  
 Use, duplication or disclosure by the US Government is subject
 to restrictions as set forth in subparagraph (c)(1)(ii) of the
 Rights in Technical Data and Computer Software clause at DFARS
 252.227-7013.
  
 Gaussian, Inc.
 Carnegie Office Park, Building 6, Pittsburgh, PA 15106 USA
  
 The following legend is applicable only to US Government
 contracts under FAR:
  
                    RESTRICTED RIGHTS LEGEND
  
 Use, reproduction and disclosure by the US Government is subject
 to restrictions as set forth in subparagraph (c) of the
 Commercial Computer Software - Restricted Rights clause at FAR
 52.227-19.
  
 Gaussian, Inc.
 Carnegie Office Park, Building 6, Pittsburgh, PA 15106 USA
  
  
 ---------------------------------------------------------------
 Warning -- This program may not be used in any manner that
 competes with the business of Gaussian, Inc. or will provide
 assistance to any competitor of Gaussian, Inc.  The licensee
 of this program is prohibited from giving any competitor of
 Gaussian, Inc. access to this program.  By using this program,
 the user acknowledges that Gaussian, Inc. is engaged in the
 business of creating and licensing software in the field of
 computational chemistry and represents and warrants to the
 licensee that it is not a competitor of Gaussian, Inc. and that
 it will not use this program in any manner prohibited above.
 ---------------------------------------------------------------
  

 Cite this work as:
 Gaussian 03, Revision B.01,
 M. J. Frisch, G. W. Trucks, H. B. Schlegel, G. E. Scuseria, 
 M. A. Robb, J. R. Cheeseman, J. A. Montgomery, Jr., T. Vreven, 
 K. N. Kudin, J. C. Burant, J. M. Millam, S. S. Iyengar, J. Tomasi, 
 V. Barone, B. Mennucci, M. Cossi, G. Scalmani, N. Rega, 
 G. A. Petersson, H. Nakatsuji, M. Hada, M. Ehara, K. Toyota, 
 R. Fukuda, J. Hasegawa, M. Ishida, T. Nakajima, Y. Honda, O. Kitao, 
 H. Nakai, M. Klene, X. Li, J. E. Knox, H. P. Hratchian, J. B. Cross, 
 C. Adamo, J. Jaramillo, R. Gomperts, R. E. Stratmann, O. Yazyev, 
 A. J. Austin, R. Cammi, C. Pomelli, J. W. Ochterski, P. Y. Ayala, 
 K. Morokuma, G. A. Voth, P. Salvador, J. J. Dannenberg, 
 V. G. Zakrzewski, S. Dapprich, A. D. Daniels, M. C. Strain, 
 O. Farkas, D. K. Malick, A. D. Rabuck, K. Raghavachari, 
 J. B. Foresman, J. V. Ortiz, Q. Cui, A. G. Baboul, S. Clifford, 
 J. Cioslowski, B. B. Stefanov, G. Liu, A. Liashenko, P. Piskorz, 
 I. Komaromi, R. L. Martin, D. J. Fox, T. Keith, M. A. Al-Laham, 
 C. Y. Peng, A. Nanayakkara, M. Challacombe, P. M. W. Gill, 
 B. Johnson, W. Chen, M. W. Wong, C. Gonzalez, and J. A. Pople, 
 Gaussian, Inc., Pittsburgh PA, 2003.
 
 *********************************************
 Gaussian 03:  x86-Linux-G03RevB.01 3-Mar-2003
                  24-Feb-2006 
 *********************************************
 %chk=et_cas_s1
 ----------------------------------------------------------------------
 #p CIS/6-311++g** opt(tight,maxcycle=100,maxstep=1) freq(hpmodes,intmo
 des)
 ----------------------------------------------------------------------
 1/6=100,7=10,8=1,18=20,38=1/1,3;
 2/9=110,17=6,18=5,40=1/2;
 3/5=4,6=6,7=1111,11=9,16=1,25=1,30=1/1,2,8,3;
 4//1;
 5/5=2,38=5/2;
 8/6=1,10=2/1,4;
 9/15=1,42=3/14;
 10/5=4/2;
 6/7=2,8=2,9=2,10=2/1;
 7/12=6,13=5/1,2,3,16;
 1/6=100,8=1,18=20/3(1);
 99//99;
 2/9=110/2;
 3/5=4,6=6,7=1111,11=9,16=1,25=1,30=1/1,2,8,3;
 4/5=5,16=3/1;
 5/5=2,38=5/2;
 8/6=1,10=2/1,4;
 9/15=1,42=3,49=4/14;
 10/5=4/2;
 7/12=6,13=5/1,2,3,16;
 1/6=100,8=1,18=20/3(-8);
 2/9=110/2;
 6/7=2,8=2,9=2,10=2/1;
 99//99;
 Leave Link    1 at Fri Feb 24 12:08:56 2006, MaxMem=          0 cpu:       0.2
 (Enter /tftpboot/usr/local/g03/l101.exe)
 ----------
 Etilene S1
 ----------
 Symbolic Z-matrix:
 Charge =  0 Multiplicity = 1
 C                     0.        0.       -0.68655 
 C                     0.        0.        0.68655 
 H                    -0.63417   0.65102   1.28908 
 H                     0.63417  -0.65102   1.28908 
 H                     0.63417   0.65102  -1.28908 
 H                    -0.63417  -0.65102  -1.28908 
 
                    Isotopes and Nuclear Properties:

  Atom         1           2           3           4           5           6
 IAtWgt=          12          12           1           1           1           1
 AtmWgt=  12.0000000  12.0000000   1.0078250   1.0078250   1.0078250   1.0078250
 IAtSpn=           0           0           1           1           1           1
 AtZEff=   0.0000000   0.0000000   0.0000000   0.0000000   0.0000000   0.0000000
 AtQMom=   0.0000000   0.0000000   0.0000000   0.0000000   0.0000000   0.0000000
 AtGFac=   0.0000000   0.0000000   2.7928460   2.7928460   2.7928460   2.7928460
 Leave Link  101 at Fri Feb 24 12:08:57 2006, MaxMem=    6291456 cpu:       0.0
 (Enter /tftpboot/usr/local/g03/l103.exe)

 GradGradGradGradGradGradGradGradGradGradGradGradGradGradGradGradGradGrad
 Berny optimization.
 Initialization pass.
                           ----------------------------
                           !    Initial Parameters    !
                           ! (Angstroms and Degrees)  !
 --------------------------                            --------------------------
 ! Name  Definition              Value          Derivative Info.                !
 --------------------------------------------------------------------------------
 ! R1    R(1,2)                  1.3731         estimate D2E/DX2                !
 ! R2    R(1,5)                  1.0904         estimate D2E/DX2                !
 ! R3    R(1,6)                  1.0904         estimate D2E/DX2                !
 ! R4    R(2,3)                  1.0904         estimate D2E/DX2                !
 ! R5    R(2,4)                  1.0904         estimate D2E/DX2                !
 ! A1    A(2,1,5)              123.5429         estimate D2E/DX2                !
 ! A2    A(2,1,6)              123.5429         estimate D2E/DX2                !
 ! A3    A(5,1,6)              112.9142         estimate D2E/DX2                !
 ! A4    A(1,2,3)              123.5429         estimate D2E/DX2                !
 ! A5    A(1,2,4)              123.5429         estimate D2E/DX2                !
 ! A6    A(3,2,4)              112.9142         estimate D2E/DX2                !
 ! D1    D(5,1,2,3)             88.4981         estimate D2E/DX2                !
 ! D2    D(5,1,2,4)            -91.5019         estimate D2E/DX2                !
 ! D3    D(6,1,2,3)            -91.5019         estimate D2E/DX2                !
 ! D4    D(6,1,2,4)             88.4981         estimate D2E/DX2                !
 --------------------------------------------------------------------------------
 Trust Radius=1.00D-02 FncErr=1.00D-07 GrdErr=1.00D-07
 Number of steps in this run= 100 maximum allowed number of steps= 100.
 GradGradGradGradGradGradGradGradGradGradGradGradGradGradGradGradGradGrad

 Leave Link  103 at Fri Feb 24 12:08:57 2006, MaxMem=    6291456 cpu:       0.0
 (Enter /tftpboot/usr/local/g03/l202.exe)
                          Input orientation:                          
 ---------------------------------------------------------------------
 Center     Atomic     Atomic              Coordinates (Angstroms)
 Number     Number      Type              X           Y           Z
 ---------------------------------------------------------------------
    1          6             0        0.000000    0.000000   -0.686550
    2          6             0        0.000000    0.000000    0.686550
    3          1             0       -0.634170    0.651015    1.289078
    4          1             0        0.634170   -0.651015    1.289078
    5          1             0        0.634170    0.651015   -1.289078
    6          1             0       -0.634170   -0.651015   -1.289078
 ---------------------------------------------------------------------
                    Distance matrix (angstroms):
                    1          2          3          4          5
     1  C    0.000000
     2  C    1.373100   0.000000
     3  H    2.174649   1.090427   0.000000
     4  H    2.174649   1.090427   1.817682   0.000000
     5  H    1.090427   2.174649   2.873252   2.888282   0.000000
     6  H    1.090427   2.174649   2.888282   2.873252   1.817682
                    6
     6  H    0.000000
 Stoichiometry    C2H4
 Framework group  D2[C2(C.C),X(H4)]
 Deg. of freedom     4
 Full point group                 D2      NOp   4
 Largest Abelian subgroup         D2      NOp   4
 Largest concise Abelian subgroup D2      NOp   4
                         Standard orientation:                         
 ---------------------------------------------------------------------
 Center     Atomic     Atomic              Coordinates (Angstroms)
 Number     Number      Type              X           Y           Z
 ---------------------------------------------------------------------
    1          6             0        0.000000    0.000000   -0.686550
    2          6             0        0.000000    0.000000    0.686550
    3          1             0       -0.634170    0.651015    1.289078
    4          1             0        0.634170   -0.651015    1.289078
    5          1             0        0.634170    0.651015   -1.289078
    6          1             0       -0.634170   -0.651015   -1.289078
 ---------------------------------------------------------------------
 Rotational constants (GHZ):    151.7735730     25.7418322     25.6279077
 Leave Link  202 at Fri Feb 24 12:08:57 2006, MaxMem=    6291456 cpu:       0.1
 (Enter /tftpboot/usr/local/g03/l301.exe)
 Standard basis: 6-311++G(d,p) (5D, 7F)
 There are    19 symmetry adapted basis functions of A   symmetry.
 There are    19 symmetry adapted basis functions of B1  symmetry.
 There are    17 symmetry adapted basis functions of B2  symmetry.
 There are    17 symmetry adapted basis functions of B3  symmetry.
 Integral buffers will be    262144 words long.
 Raffenetti 1 integral format.
 Two-electron integral symmetry is turned on.
    72 basis functions,   108 primitive gaussians,    74 cartesian basis functions
     8 alpha electrons        8 beta electrons
       nuclear repulsion energy        32.6782052267 Hartrees.
 IExCor=   0 DFT=F Ex=HF Corr=None ExCW=0 ScaHFX=  1.000000
 ScaDFX=  1.000000  1.000000  1.000000  1.000000
 IRadAn=      0 IRanWt=     -1 IRanGd=            0 ICorTp=0
 NAtoms=    6 NActive=    6 NUniq=    2 SFac= 5.66D+00 NAtFMM=   60 Big=F
 Leave Link  301 at Fri Feb 24 12:08:57 2006, MaxMem=    6291456 cpu:       0.0
 (Enter /tftpboot/usr/local/g03/l302.exe)
 NPDir=0 NMtPBC=     1 NCelOv=     1 NCel=       1 NClECP=     1 NCelD=      1
         NCelK=      1 NCelE2=     1 NClLst=     1 CellRange=     0.0.
 One-electron integrals computed using PRISM.
 One-electron integral symmetry used in STVInt
 NBasis=    72 RedAO= T  NBF=    19    19    17    17
 NBsUse=    72 1.00D-06 NBFU=    19    19    17    17
 Leave Link  302 at Fri Feb 24 12:08:57 2006, MaxMem=    6291456 cpu:       0.2
 (Enter /tftpboot/usr/local/g03/l308.exe)
 Leave Link  308 at Fri Feb 24 12:08:57 2006, MaxMem=    6291456 cpu:       0.0
 (Enter /tftpboot/usr/local/g03/l303.exe)
 DipDrv:  MaxL=1.
 Leave Link  303 at Fri Feb 24 12:08:58 2006, MaxMem=    6291456 cpu:       0.0
 (Enter /tftpboot/usr/local/g03/l401.exe)
 Harris functional with IExCor=  205 diagonalized for initial guess.
 ExpMin= 3.60D-02 ExpMax= 4.56D+03 ExpMxC= 6.82D+02 IAcc=3 IRadAn=         5 AccDes= 0.00D+00
 HarFok:  IExCor= 205 AccDes= 0.00D+00 IRadAn=         5 IDoV=1
 ScaDFX=  1.000000  1.000000  1.000000  1.000000
 Harris En= -78.1121995576357    
 Initial guess orbital symmetries:
       Occupied  (A) (B1) (A) (B1) (A) (B2) (B3) (B3)
       Virtual   (B2) (A) (B1) (B2) (B3) (A) (B1) (B3) (B2) (A)
                 (B1) (B2) (B3) (B1) (A) (B2) (B3) (B1) (A) (B1)
                 (B2) (B3) (A) (B3) (B2) (B2) (B3) (B1) (A) (B1)
                 (A) (B1) (B3) (B2) (B1) (A) (B3) (B2) (A) (B2)
                 (B3) (A) (B1) (B3) (B2) (B1) (A) (B1) (A) (B1)
                 (B3) (B2) (B2) (B3) (B1) (A) (B2) (B3) (A) (B2)
                 (B3) (B1) (A) (B1)
 The electronic state of the initial guess is 1-A.
 Leave Link  401 at Fri Feb 24 12:08:59 2006, MaxMem=    6291456 cpu:       0.7
 (Enter /tftpboot/usr/local/g03/l502.exe)
 Closed shell SCF:
 Requested convergence on RMS density matrix=1.00D-08 within 128 cycles.
 Requested convergence on MAX density matrix=1.00D-06.
 Requested convergence on             energy=1.00D-06.
 No special actions if energy rises.
 Using DIIS extrapolation, IDIIS=  1040.
 Integral symmetry usage will be decided dynamically.
 Keep R1 integrals in memory in canonical form, NReq=     4525706.
 IEnd=     35867 IEndB=     35867 NGot=   6291456 MDV=   2426066
 LenX=   2426066
 Symmetry not used in FoFDir.
 MinBra= 0 MaxBra= 2 Meth= 1.
 IRaf=       0 NMat=   1 IRICut=       1 DoRegI=T DoRafI=F ISym2E= 0 JSym2E=0.

 Cycle   1  Pass 1  IDiag  1:
 E= -77.7325341415731    
 DIIS: error= 7.07D-02 at cycle   1 NSaved=   1.
 NSaved= 1 IEnMin= 1 EnMin= -77.7325341415731     IErMin= 1 ErrMin= 7.07D-02
 ErrMax= 7.07D-02 EMaxC= 1.00D-01 BMatC= 2.10D-01 BMatP= 2.10D-01
 IDIUse=3 WtCom= 2.93D-01 WtEn= 7.07D-01
 Coeff-Com:  0.100D+01
 Coeff-En:   0.100D+01
 Coeff:      0.100D+01
 Gap=     0.247 Goal=   None    Shift=    0.000
 GapD=    0.247 DampG=1.000 DampE=0.500 DampFc=0.5000 IDamp=-1.
 Damping current iteration by 5.00D-01
 RMSDP=5.56D-03 MaxDP=9.73D-02              OVMax= 2.08D-01

 Cycle   2  Pass 1  IDiag  1:
 E= -77.8186760152439     Delta-E=       -0.086141873671 Rises=F Damp=T
 DIIS: error= 3.85D-02 at cycle   2 NSaved=   2.
 NSaved= 2 IEnMin= 2 EnMin= -77.8186760152439     IErMin= 2 ErrMin= 3.85D-02
 ErrMax= 3.85D-02 EMaxC= 1.00D-01 BMatC= 3.62D-02 BMatP= 2.10D-01
 IDIUse=3 WtCom= 6.15D-01 WtEn= 3.85D-01
 Coeff-Com: -0.548D+00 0.155D+01
 Coeff-En:   0.000D+00 0.100D+01
 Coeff:     -0.337D+00 0.134D+01
 Gap=     0.306 Goal=   None    Shift=    0.000
 RMSDP=1.71D-03 MaxDP=1.87D-02 DE=-8.61D-02 OVMax= 5.35D-02

 Cycle   3  Pass 1  IDiag  1:
 E= -77.8920062995117     Delta-E=       -0.073330284268 Rises=F Damp=F
 DIIS: error= 2.50D-03 at cycle   3 NSaved=   3.
 NSaved= 3 IEnMin= 3 EnMin= -77.8920062995117     IErMin= 3 ErrMin= 2.50D-03
 ErrMax= 2.50D-03 EMaxC= 1.00D-01 BMatC= 2.38D-04 BMatP= 3.62D-02
 IDIUse=3 WtCom= 9.75D-01 WtEn= 2.50D-02
 Coeff-Com:  0.603D-01-0.168D+00 0.111D+01
 Coeff-En:   0.000D+00 0.000D+00 0.100D+01
 Coeff:      0.588D-01-0.164D+00 0.110D+01
 Gap=     0.291 Goal=   None    Shift=    0.000
 RMSDP=4.40D-04 MaxDP=2.95D-03 DE=-7.33D-02 OVMax= 7.46D-03

 Cycle   4  Pass 1  IDiag  1:
 E= -77.8923574020558     Delta-E=       -0.000351102544 Rises=F Damp=F
 DIIS: error= 9.12D-04 at cycle   4 NSaved=   4.
 NSaved= 4 IEnMin= 4 EnMin= -77.8923574020558     IErMin= 4 ErrMin= 9.12D-04
 ErrMax= 9.12D-04 EMaxC= 1.00D-01 BMatC= 1.44D-05 BMatP= 2.38D-04
 IDIUse=3 WtCom= 9.91D-01 WtEn= 9.12D-03
 Coeff-Com: -0.498D-02 0.179D-01-0.260D+00 0.125D+01
 Coeff-En:   0.000D+00 0.000D+00 0.000D+00 0.100D+01
 Coeff:     -0.494D-02 0.178D-01-0.258D+00 0.125D+01
 Gap=     0.291 Goal=   None    Shift=    0.000
 RMSDP=2.04D-04 MaxDP=1.07D-03 DE=-3.51D-04 OVMax= 3.99D-03

 Cycle   5  Pass 1  IDiag  1:
 E= -77.8924053086156     Delta-E=       -0.000047906560 Rises=F Damp=F
 DIIS: error= 3.67D-04 at cycle   5 NSaved=   5.
 NSaved= 5 IEnMin= 5 EnMin= -77.8924053086156     IErMin= 5 ErrMin= 3.67D-04
 ErrMax= 3.67D-04 EMaxC= 1.00D-01 BMatC= 1.36D-06 BMatP= 1.44D-05
 IDIUse=3 WtCom= 9.96D-01 WtEn= 3.67D-03
 Coeff-Com:  0.499D-03-0.101D-02 0.133D-01-0.384D+00 0.137D+01
 Coeff-En:   0.000D+00 0.000D+00 0.000D+00 0.000D+00 0.100D+01
 Coeff:      0.497D-03-0.101D-02 0.133D-01-0.382D+00 0.137D+01
 Gap=     0.291 Goal=   None    Shift=    0.000
 RMSDP=7.50D-05 MaxDP=3.77D-04 DE=-4.79D-05 OVMax= 2.00D-03

 Cycle   6  Pass 1  IDiag  1:
 E= -77.8924114891529     Delta-E=       -0.000006180537 Rises=F Damp=F
 DIIS: error= 9.01D-05 at cycle   6 NSaved=   6.
 NSaved= 6 IEnMin= 6 EnMin= -77.8924114891529     IErMin= 6 ErrMin= 9.01D-05
 ErrMax= 9.01D-05 EMaxC= 1.00D-01 BMatC= 8.51D-08 BMatP= 1.36D-06
 IDIUse=1 WtCom= 1.00D+00 WtEn= 0.00D+00
 Coeff-Com:  0.904D-03-0.252D-02 0.191D-01 0.577D-01-0.555D+00 0.148D+01
 Coeff:      0.904D-03-0.252D-02 0.191D-01 0.577D-01-0.555D+00 0.148D+01
 Gap=     0.291 Goal=   None    Shift=    0.000
 RMSDP=1.12D-05 MaxDP=6.85D-05 DE=-6.18D-06 OVMax= 6.16D-04

 Cycle   7  Pass 1  IDiag  1:
 E= -77.8924118772419     Delta-E=       -0.000000388089 Rises=F Damp=F
 DIIS: error= 8.93D-06 at cycle   7 NSaved=   7.
 NSaved= 7 IEnMin= 7 EnMin= -77.8924118772419     IErMin= 7 ErrMin= 8.93D-06
 ErrMax= 8.93D-06 EMaxC= 1.00D-01 BMatC= 1.34D-09 BMatP= 8.51D-08
 IDIUse=1 WtCom= 1.00D+00 WtEn= 0.00D+00
 Coeff-Com: -0.251D-03 0.642D-03-0.455D-02-0.110D-03 0.825D-01-0.345D+00
 Coeff-Com:  0.127D+01
 Coeff:     -0.251D-03 0.642D-03-0.455D-02-0.110D-03 0.825D-01-0.345D+00
 Coeff:      0.127D+01
 Gap=     0.291 Goal=   None    Shift=    0.000
 RMSDP=4.19D-06 MaxDP=3.40D-05 DE=-3.88D-07 OVMax= 5.77D-05

 Cycle   8  Pass 1  IDiag  1:
 E= -77.8924118828836     Delta-E=       -0.000000005642 Rises=F Damp=F
 DIIS: error= 8.94D-07 at cycle   8 NSaved=   8.
 NSaved= 8 IEnMin= 8 EnMin= -77.8924118828836     IErMin= 8 ErrMin= 8.94D-07
 ErrMax= 8.94D-07 EMaxC= 1.00D-01 BMatC= 3.09D-11 BMatP= 1.34D-09
 IDIUse=1 WtCom= 1.00D+00 WtEn= 0.00D+00
 Coeff-Com:  0.450D-04-0.114D-03 0.814D-03-0.367D-03-0.157D-01 0.765D-01
 Coeff-Com: -0.384D+00 0.132D+01
 Coeff:      0.450D-04-0.114D-03 0.814D-03-0.367D-03-0.157D-01 0.765D-01
 Coeff:     -0.384D+00 0.132D+01
 Gap=     0.291 Goal=   None    Shift=    0.000
 RMSDP=8.77D-07 MaxDP=6.10D-06 DE=-5.64D-09 OVMax= 1.18D-05

 Cycle   9  Pass 1  IDiag  1:
 E= -77.8924118830366     Delta-E=       -0.000000000153 Rises=F Damp=F
 DIIS: error= 2.85D-07 at cycle   9 NSaved=   9.
 NSaved= 9 IEnMin= 9 EnMin= -77.8924118830366     IErMin= 9 ErrMin= 2.85D-07
 ErrMax= 2.85D-07 EMaxC= 1.00D-01 BMatC= 1.47D-12 BMatP= 3.09D-11
 IDIUse=1 WtCom= 1.00D+00 WtEn= 0.00D+00
 Coeff-Com: -0.203D-04 0.504D-04-0.323D-03 0.274D-03 0.565D-02-0.292D-01
 Coeff-Com:  0.154D+00-0.614D+00 0.148D+01
 Coeff:     -0.203D-04 0.504D-04-0.323D-03 0.274D-03 0.565D-02-0.292D-01
 Coeff:      0.154D+00-0.614D+00 0.148D+01
 Gap=     0.291 Goal=   None    Shift=    0.000
 RMSDP=6.02D-08 MaxDP=4.84D-07 DE=-1.53D-10 OVMax= 3.38D-06

 Cycle  10  Pass 1  IDiag  1:
 E= -77.8924118830457     Delta-E=       -0.000000000009 Rises=F Damp=F
 DIIS: error= 8.71D-08 at cycle  10 NSaved=  10.
 NSaved=10 IEnMin=10 EnMin= -77.8924118830457     IErMin=10 ErrMin= 8.71D-08
 ErrMax= 8.71D-08 EMaxC= 1.00D-01 BMatC= 9.03D-14 BMatP= 1.47D-12
 IDIUse=1 WtCom= 1.00D+00 WtEn= 0.00D+00
 Coeff-Com:  0.493D-05-0.127D-04 0.805D-04-0.806D-04-0.150D-02 0.800D-02
 Coeff-Com: -0.437D-01 0.193D+00-0.664D+00 0.151D+01
 Coeff:      0.493D-05-0.127D-04 0.805D-04-0.806D-04-0.150D-02 0.800D-02
 Coeff:     -0.437D-01 0.193D+00-0.664D+00 0.151D+01
 Gap=     0.291 Goal=   None    Shift=    0.000
 RMSDP=3.70D-08 MaxDP=2.53D-07 DE=-9.05D-12 OVMax= 8.95D-07

 Cycle  11  Pass 1  IDiag  1:
 E= -77.8924118830463     Delta-E=       -0.000000000001 Rises=F Damp=F
 DIIS: error= 1.02D-08 at cycle  11 NSaved=  11.
 NSaved=11 IEnMin=11 EnMin= -77.8924118830463     IErMin=11 ErrMin= 1.02D-08
 ErrMax= 1.02D-08 EMaxC= 1.00D-01 BMatC= 1.98D-15 BMatP= 9.03D-14
 IDIUse=1 WtCom= 1.00D+00 WtEn= 0.00D+00
 Coeff-Com: -0.422D-06 0.121D-05-0.751D-05 0.447D-05 0.179D-03-0.902D-03
 Coeff-Com:  0.455D-02-0.190D-01 0.932D-01-0.334D+00 0.126D+01
 Coeff:     -0.422D-06 0.121D-05-0.751D-05 0.447D-05 0.179D-03-0.902D-03
 Coeff:      0.455D-02-0.190D-01 0.932D-01-0.334D+00 0.126D+01
 Gap=     0.291 Goal=   None    Shift=    0.000
 RMSDP=3.76D-09 MaxDP=2.41D-08 DE=-5.83D-13 OVMax= 8.16D-08

 SCF Done:  E(RHF) =  -77.8924118830     A.U. after   11 cycles
             Convg  =    0.3755D-08             -V/T =  2.0002
             S**2   =   0.0000
 KE= 7.787832471190D+01 PE=-2.462254472514D+02 EE= 5.777650542969D+01
 Leave Link  502 at Fri Feb 24 12:09:00 2006, MaxMem=    6291456 cpu:       1.4
 (Enter /tftpboot/usr/local/g03/l801.exe)
 ExpMin= 3.60D-02 ExpMax= 4.56D+03 ExpMxC= 6.82D+02 IAcc=3 IRadAn=         5 AccDes= 0.00D+00
 HarFok:  IExCor= 205 AccDes= 0.00D+00 IRadAn=         5 IDoV=1
 ScaDFX=  1.000000  1.000000  1.000000  1.000000
 Largest valence mixing into a core orbital is  1.29D-04
 Largest core mixing into a valence orbital is  3.54D-05
 Range of M.O.s used for correlation:     3    72
 NBasis=    72 NAE=     8 NBE=     8 NFC=     2 NFV=     0
 NROrb=     70 NOA=     6 NOB=     6 NVA=    64 NVB=    64

 **** Warning!!: The largest alpha MO coefficient is  0.41352434D+02

 Leave Link  801 at Fri Feb 24 12:09:01 2006, MaxMem=    6291456 cpu:       0.6
 (Enter /tftpboot/usr/local/g03/l804.exe)
 Closed-shell transformation, MDV=     6291456 ITran=3 ISComp=1.
 Direct transformation and sort for antisymmetrization.
 JobTyp= 0 Pass  1:  I=   1 to   6.
 Spin components of T(2) and E(2):
     alpha-alpha T2 =       0.1267422413D-01 E2=     -0.3305445057D-01
     alpha-beta  T2 =       0.9872351502D-01 E2=     -0.2397742096D+00
     beta-beta   T2 =       0.1267422413D-01 E2=     -0.3305445057D-01
 ANorm=    0.1060222601D+01
 E2=       -0.3058831107D+00 EUMP2=       -0.78198294993775D+02
 Leave Link  804 at Fri Feb 24 12:09:04 2006, MaxMem=    6291456 cpu:       3.5
 (Enter /tftpboot/usr/local/g03/l914.exe)
 RHF ground state
 MDV=   6291456 DFT=F DoStab=F Mixed=F DoRPA=F DoScal=F NonHer=F
 Making orbital integer symmetry assigments:
 Orbital symmetries:
       Occupied  (A) (B1) (A) (B1) (A) (B2) (B3) (B3)
       Virtual   (B2) (A) (B1) (B3) (B2) (A) (B1) (B3) (B2) (A)
                 (B1) (B3) (B2) (B1) (A) (B2) (B3) (B1) (A) (B2)
                 (B3) (B1) (A) (B3) (B2) (B2) (B3) (B1) (A) (B1)
                 (A) (B1) (B3) (B2) (B1) (B3) (A) (B2) (A) (B2)
                 (B3) (A) (B1) (B3) (B2) (B1) (A) (B1) (B3) (B2)
                 (B1) (A) (B2) (B1) (B3) (A) (B2) (B3) (A) (B2)
                 (B3) (B1) (A) (B1)
 Petite list used in FoFDir.
 MinBra= 0 MaxBra= 2 Meth= 1.
 IRaf=       0 NMat=   1 IRICut=       1 DoRegI=T DoRafI=F ISym2E= 1 JSym2E=1.
    12 initial guesses have been made.
 Convergence on wavefunction:    0.000001000000000
 Davidson Disk Diagonalization:  ConvIn= 1.00D-06 SkipCon=T Conv= 1.00D-06.
 Max sub-space:   200 roots to seek:    12 dimension of matrix:    768
 Iteration     1 Dimension    12 NMult    12
 Excitation Energies [eV] at current iteration:
 Root      1 :     1.989620656991057
 Root      2 :     4.211785636546122
 Root      3 :     5.024594718146671
 Root      4 :     5.172646411885145
 Root      5 :     5.192375024603425
 Root      6 :     6.399896455003000
 Root      7 :     6.779239598987405
 Root      8 :     7.225715771302215
 Root      9 :     7.575225974686036
 Root     10 :     7.908722983361557
 Root     11 :     8.754796564447068
 Root     12 :     9.542602071032031
 Iteration     2 Dimension    24 NMult    24
 Root      1 not converged, maximum delta is    0.053356082398622
 Root      2 not converged, maximum delta is    0.024229787075078
 Root      3 not converged, maximum delta is    0.044201954797669
 Excitation Energies [eV] at current iteration:
 Root      1 :     1.158957911498561   Change is   -0.830662745492495
 Root      2 :     4.152505155233956   Change is   -0.059280481312167
 Root      3 :     4.912220886654457   Change is   -0.112373831492214
 Iteration     3 Dimension    27 NMult    27
 Root      1 not converged, maximum delta is    0.006042248251489
 Root      2 not converged, maximum delta is    0.006696528154400
 Root      3 not converged, maximum delta is    0.013560319873723
 Excitation Energies [eV] at current iteration:
 Root      1 :     1.151911513419186   Change is   -0.007046398079375
 Root      2 :     4.150790029989484   Change is   -0.001715125244472
 Root      3 :     4.906670219644409   Change is   -0.005550667010048
 Iteration     4 Dimension    30 NMult    30
 Root      1 not converged, maximum delta is    0.000880912948516
 Root      2 not converged, maximum delta is    0.000902991488416
 Root      3 not converged, maximum delta is    0.001629201452428
 Excitation Energies [eV] at current iteration:
 Root      1 :     1.151791319667228   Change is   -0.000120193751959
 Root      2 :     4.150741757744449   Change is   -0.000048272245034
 Root      3 :     4.906471119876273   Change is   -0.000199099768137
 Iteration     5 Dimension    33 NMult    33
 Root      1 not converged, maximum delta is    0.000086105132886
 Root      2 not converged, maximum delta is    0.000156851535481
 Root      3 not converged, maximum delta is    0.000290081869067
 Excitation Energies [eV] at current iteration:
 Root      1 :     1.151789604270033   Change is   -0.000001715397195
 Root      2 :     4.150739761144540   Change is   -0.000001996599909
 Root      3 :     4.906465575151178   Change is   -0.000005544725095
 Iteration     6 Dimension    36 NMult    36
 Root      1 not converged, maximum delta is    0.000008376103253
 Root      2 not converged, maximum delta is    0.000023450390161
 Root      3 not converged, maximum delta is    0.000073365996624
 Excitation Energies [eV] at current iteration:
 Root      1 :     1.151789587006363   Change is   -0.000000017263670
 Root      2 :     4.150739678527412   Change is   -0.000000082617128
 Root      3 :     4.906465280443070   Change is   -0.000000294708108
 Iteration     7 Dimension    39 NMult    39
 Root      1 not converged, maximum delta is    0.000001037332365
 Root      2 not converged, maximum delta is    0.000002269186391
 Root      3 not converged, maximum delta is    0.000014330135260
 Excitation Energies [eV] at current iteration:
 Root      1 :     1.151789586759765   Change is   -0.000000000246598
 Root      2 :     4.150739676786459   Change is   -0.000000001740954
 Root      3 :     4.906465269471822   Change is   -0.000000010971248
 Iteration     8 Dimension    42 NMult    42
 Root      1 has converged.
 Root      2 has converged.
 Root      3 not converged, maximum delta is    0.000003872045341
 Excitation Energies [eV] at current iteration:
 Root      1 :     1.151789586757003   Change is   -0.000000000002762
 Root      2 :     4.150739676751080   Change is   -0.000000000035378
 Root      3 :     4.906465268931059   Change is   -0.000000000540763
 Iteration     9 Dimension    43 NMult    43
 Root      1 has converged.
 Root      2 has converged.
 Root      3 has converged.
 Excitation Energies [eV] at current iteration:
 Root      1 :     1.151789586757007   Change is    0.000000000000004
 Root      2 :     4.150739676751080   Change is   -0.000000000000001
 Root      3 :     4.906465268901964   Change is   -0.000000000029096
 Convergence achieved on expansion vectors.
 ***********************************************************************
 Excited states from <AA,BB:AA,BB> singles matrix:
 ***********************************************************************
 
 1PDM for each excited state written to RWF  633
 Ground to excited state Transition electric dipole moments (Au):
       state          X           Y           Z          Osc.
         1         0.0000      0.0000      0.9896      0.0276
         2         0.4975      0.0000      0.0000      0.0252
         3         0.0000     -0.5518      0.0000      0.0366
 Ground to excited state transition velocity dipole Moments (Au):
       state          X           Y           Z          Osc.
         1         0.0000      0.0000      0.1127      0.2001
         2        -0.0504      0.0000      0.0000      0.0111
         3         0.0000      0.1047      0.0000      0.0405
 Ground to excited state transition magnetic dipole Moments (Au):
       state          X           Y           Z
         1         0.0000      0.0000      0.5679
         2         0.6150      0.0000      0.0000
         3         0.0000     -0.1441      0.0000
 <0|del|b> * <b|rxdel|0>  (Au), Rotatory Strengths (R) in
 cgs (10**-40 erg-esu-cm/Gauss)
       state          X           Y           Z     R(velocity)
         1         0.0000      0.0000      0.0640    356.4483
         2        -0.0310      0.0000      0.0000    -47.9132
         3         0.0000     -0.0151      0.0000    -19.7164
 <0|r|b> * <b|rxdel|0>  (Au), Rotatory Strengths (R) in
 cgs (10**-40 erg-esu-cm/Gauss)
       state          X           Y           Z     R(length)
         1         0.0000      0.0000      0.5620   -132.4690
         2         0.3060      0.0000      0.0000    -72.1240
         3         0.0000      0.0795      0.0000    -18.7422
  <0|del|b> * <b|r|0>  (Au)
       state          X           Y           Z       Osc.(frdel)
         1         0.0000      0.0000      0.1115     -0.0744
         2        -0.0251      0.0000      0.0000      0.0167
         3         0.0000     -0.0578      0.0000      0.0385
 Ground to excited state transition densities written to RWF  633

 Excitation energies and oscillator strengths:
 
 Excited State   1:   Singlet-B1     1.1518 eV 1076.45 nm  f=0.0276
       8 ->  9         0.67545
       8 -> 17        -0.14969
 This state for optimization and/or second-order correction.
 Total Energy, E(CIS) =  -77.8500843921    
 Copying the excited state density for this state as the 1-particle RhoCI density.
 
 Excited State   2:   Singlet-B3     4.1507 eV  298.70 nm  f=0.0252
       8 -> 10         0.66838
       8 -> 18        -0.19635
 
 Excited State   3:   Singlet-B2     4.9065 eV  252.70 nm  f=0.0366
       8 -> 11         0.67885
       8 -> 22         0.16444
 The selected state is a singlet
 Cannot handle 2e integral symmetry, ISym2E=1.
 CISAX:  IP=  1 NPass=   1 NMax=   1.
 CISAX will form   1 AO SS matrices at one time.
 NMat=  1 NSing=  1.
 Leave Link  914 at Fri Feb 24 12:09:06 2006, MaxMem=    6291456 cpu:       1.8
 (Enter /tftpboot/usr/local/g03/l1002.exe)
 Minotr:  Closed-shell wavefunction.
          Computing CIS derivatives.
          Using Z-Vector for PSCF gradient.
          Skipping F1 and S1 gradient terms here.
          Frozen-core window.
          Direct CPHF calculation.
          Solving linear equations simultaneously.
          Differentiating once with respect to electric field.
                with respect to dipole field.
          Differentiating once with respect to nuclear coordinates.
          Requested convergence is 1.0D-10 RMS, and 1.0D-09 maximum.
          Secondary convergence is 1.0D-12 RMS, and 1.0D-12 maximum.
          NewPWx=F KeepS1=T KeepF1=T KeepIn=T MapXYZ=F.
          MDV=       6291456 using IRadAn=       2.
          Store integrals in memory, NReq=     4282752.
 Symmetry not used in FoFDir.
 MinBra= 0 MaxBra= 2 Meth= 1.
 IRaf=       0 NMat=   1 IRICut=       1 DoRegI=T DoRafI=F ISym2E= 0 JSym2E=0.
          There are   1 degrees of freedom in the 1st order CPHF.
     1 vectors were produced by pass  0.
 AX will form   1 AO Fock derivatives at one time.
     1 vectors were produced by pass  1.
     1 vectors were produced by pass  2.
     1 vectors were produced by pass  3.
     1 vectors were produced by pass  4.
     1 vectors were produced by pass  5.
     1 vectors were produced by pass  6.
     1 vectors were produced by pass  7.
     1 vectors were produced by pass  8.
     1 vectors were produced by pass  9.
 Inv2:  IOpt= 1 Iter= 1 AM= 3.50D-16 Conv= 1.00D-12.
 Inverted reduced A of dimension   10 with in-core refinement.
 End of Minotr Frequency-dependent properties file   721 does not exist.
 Leave Link 1002 at Fri Feb 24 12:09:08 2006, MaxMem=    6291456 cpu:       1.3
 (Enter /tftpboot/usr/local/g03/l601.exe)
 Copying SCF densities to generalized density rwf, ISCF=0 IROHF=0.

 **********************************************************************

            Population analysis using the SCF density.

 **********************************************************************

 Orbital symmetries:
       Occupied  (A) (B1) (A) (B1) (A) (B2) (B3) (B3)
       Virtual   (B2) (A) (B1) (B3) (B2) (A) (B1) (B3) (B2) (A)
                 (B1) (B3) (B2) (B1) (A) (B2) (B3) (B1) (A) (B2)
                 (B3) (B1) (A) (B3) (B2) (B2) (B3) (B1) (A) (B1)
                 (A) (B1) (B3) (B2) (B1) (B3) (A) (B2) (A) (B2)
                 (B3) (A) (B1) (B3) (B2) (B1) (A) (B1) (B3) (B2)
                 (B1) (A) (B2) (B1) (B3) (A) (B2) (B3) (A) (B2)
                 (B3) (B1) (A) (B1)
 The electronic state is 1-A.
 Alpha  occ. eigenvalues --  -11.25474 -11.25345  -1.03116  -0.80825  -0.60259
 Alpha  occ. eigenvalues --   -0.59892  -0.58373  -0.26420
 Alpha virt. eigenvalues --    0.02641   0.04637   0.06425   0.06924   0.07013
 Alpha virt. eigenvalues --    0.14438   0.15134   0.15175   0.16700   0.20513
 Alpha virt. eigenvalues --    0.20625   0.21250   0.21304   0.26895   0.31495
 Alpha virt. eigenvalues --    0.33424   0.34056   0.48733   0.59394   0.65650
 Alpha virt. eigenvalues --    0.66711   0.67635   0.71691   0.76293   0.76996
 Alpha virt. eigenvalues --    0.86067   0.86177   0.92271   0.96084   1.05984
 Alpha virt. eigenvalues --    1.23494   1.34627   1.58316   1.59590   1.64136
 Alpha virt. eigenvalues --    1.74116   1.74164   1.74280   1.95960   1.97033
 Alpha virt. eigenvalues --    1.97439   2.04774   2.20487   2.32372   2.32636
 Alpha virt. eigenvalues --    2.39776   2.45210   2.56475   2.80220   2.80806
 Alpha virt. eigenvalues --    2.85057   2.85535   2.99072   2.99573   3.00178
 Alpha virt. eigenvalues --    3.01992   3.32524   3.32684   3.88993   4.10711
 Alpha virt. eigenvalues --    4.10992   4.29241  24.95930  25.27323
          Condensed to atoms (all electrons):
              1          2          3          4          5          6
     1  C    5.112458   0.539052  -0.074871  -0.074871   0.390888   0.390888
     2  C    0.539052   5.112458   0.390888   0.390888  -0.074871  -0.074871
     3  H   -0.074871   0.390888   0.663798  -0.121580  -0.035203   0.035197
     4  H   -0.074871   0.390888  -0.121580   0.663798   0.035197  -0.035203
     5  H    0.390888  -0.074871  -0.035203   0.035197   0.663798  -0.121580
     6  H    0.390888  -0.074871   0.035197  -0.035203  -0.121580   0.663798
 Mulliken atomic charges:
              1
     1  C   -0.283543
     2  C   -0.283543
     3  H    0.141772
     4  H    0.141772
     5  H    0.141772
     6  H    0.141772
 Sum of Mulliken charges=   0.00000
 Atomic charges with hydrogens summed into heavy atoms:
              1
     1  C    0.000000
     2  C    0.000000
     3  H    0.000000
     4  H    0.000000
     5  H    0.000000
     6  H    0.000000
 Sum of Mulliken charges=   0.00000
 Electronic spatial extent (au):  <R**2>=    87.6475
 Charge=     0.0000 electrons
 Dipole moment (field-independent basis, Debye):
    X=     0.0000    Y=     0.0000    Z=     0.0000  Tot=     0.0000
 Quadrupole moment (field-independent basis, Debye-Ang):
   XX=   -14.4260   YY=   -15.4346   ZZ=   -13.0643
   XY=     0.0000   XZ=     0.0000   YZ=     0.0000
 Traceless Quadrupole moment (field-independent basis, Debye-Ang):
   XX=    -0.1177   YY=    -1.1263   ZZ=     1.2440
   XY=     0.0000   XZ=     0.0000   YZ=     0.0000
 Octapole moment (field-independent basis, Debye-Ang**2):
  XXX=     0.0000  YYY=     0.0000  ZZZ=     0.0000  XYY=     0.0000
  XXY=     0.0000  XXZ=     0.0000  XZZ=     0.0000  YZZ=     0.0000
  YYZ=     0.0000  XYZ=    -2.6848
 Hexadecapole moment (field-independent basis, Debye-Ang**3):
 XXXX=   -27.6453 YYYY=   -29.2636 ZZZZ=   -77.3009 XXXY=     0.0000
 XXXZ=     0.0000 YYYX=     0.0000 YYYZ=     0.0000 ZZZX=     0.0000
 ZZZY=     0.0000 XXYY=    -8.6892 XXZZ=   -14.8090 YYZZ=   -20.0293
 XXYZ=     0.0000 YYXZ=     0.0000 ZZXY=     0.0000
 N-N= 3.267820522674D+01 E-N=-2.462254473724D+02  KE= 7.787832471190D+01
 Symmetry A    KE= 3.747510439287D+01
 Symmetry B1   KE= 3.452775004104D+01
 Symmetry B2   KE= 1.922281270076D+00
 Symmetry B3   KE= 3.953189007910D+00
 No NMR shielding tensors so no spin-rotation constants.
 Leave Link  601 at Fri Feb 24 12:09:08 2006, MaxMem=    6291456 cpu:       0.2
 (Enter /tftpboot/usr/local/g03/l701.exe)
 Compute integral first derivatives.
 ... and contract with generalized density number  6.
 Leave Link  701 at Fri Feb 24 12:09:09 2006, MaxMem=    6291456 cpu:       0.2
 (Enter /tftpboot/usr/local/g03/l702.exe)
 L702 exits ... SP integral derivatives will be done elsewhere.
 Leave Link  702 at Fri Feb 24 12:09:09 2006, MaxMem=    6291456 cpu:       0.0
 (Enter /tftpboot/usr/local/g03/l703.exe)
 Compute integral first derivatives, UseDBF=F.
 Integral derivatives from FoFDir, PRISM(SPDF).
 Use density number 6.
 Generate 2PDM for CIS state  1.
 Petite list used in FoFDir.
 MinBra= 0 MaxBra= 2 Meth= 1.
 IRaf=       0 NMat=   1 IRICut=       1 DoRegI=T DoRafI=F ISym2E= 1 JSym2E=1.
 Leave Link  703 at Fri Feb 24 12:09:10 2006, MaxMem=    6291456 cpu:       1.1
 (Enter /tftpboot/usr/local/g03/l716.exe)
 Use density number 6.
 Dipole        = 2.22044605D-16 4.21884749D-15-3.55271368D-15
 ***** Axes restored to original set *****
 -------------------------------------------------------------------
 Center     Atomic                   Forces (Hartrees/Bohr)
 Number     Number              X              Y              Z
 -------------------------------------------------------------------
    1          6           0.000000000    0.000000000   -0.000000373
    2          6           0.000000000    0.000000000    0.000000373
    3          1           0.000003555    0.000003875   -0.000000246
    4          1          -0.000003555   -0.000003875   -0.000000246
    5          1          -0.000003555    0.000003875    0.000000246
    6          1           0.000003555   -0.000003875    0.000000246
 -------------------------------------------------------------------
 Cartesian Forces:  Max     0.000003875 RMS     0.000002485
 Leave Link  716 at Fri Feb 24 12:09:10 2006, MaxMem=    6291456 cpu:       0.0
 (Enter /tftpboot/usr/local/g03/l103.exe)

 GradGradGradGradGradGradGradGradGradGradGradGradGradGradGradGradGradGrad
 Berny optimization.
 Internal  Forces:  Max     0.000004508 RMS     0.000002340
 Search for a local minimum.
 Step number   1 out of a maximum of 100
 All quantities printed in internal units (Hartrees-Bohrs-Radians)
 Second derivative matrix not updated -- first step.
 The second derivative matrix:
                          R1        R2        R3        R4        R5
           R1           0.50385
           R2           0.00000   0.34763
           R3           0.00000   0.00000   0.34763
           R4           0.00000   0.00000   0.00000   0.34763
           R5           0.00000   0.00000   0.00000   0.00000   0.34763
           A1           0.00000   0.00000   0.00000   0.00000   0.00000
           A2           0.00000   0.00000   0.00000   0.00000   0.00000
           A3           0.00000   0.00000   0.00000   0.00000   0.00000
           A4           0.00000   0.00000   0.00000   0.00000   0.00000
           A5           0.00000   0.00000   0.00000   0.00000   0.00000
           A6           0.00000   0.00000   0.00000   0.00000   0.00000
           D1           0.00000   0.00000   0.00000   0.00000   0.00000
           D2           0.00000   0.00000   0.00000   0.00000   0.00000
           D3           0.00000   0.00000   0.00000   0.00000   0.00000
           D4           0.00000   0.00000   0.00000   0.00000   0.00000
                          A1        A2        A3        A4        A5
           A1           0.16000
           A2           0.00000   0.16000
           A3           0.00000   0.00000   0.16000
           A4           0.00000   0.00000   0.00000   0.16000
           A5           0.00000   0.00000   0.00000   0.00000   0.16000
           A6           0.00000   0.00000   0.00000   0.00000   0.00000
           D1           0.00000   0.00000   0.00000   0.00000   0.00000
           D2           0.00000   0.00000   0.00000   0.00000   0.00000
           D3           0.00000   0.00000   0.00000   0.00000   0.00000
           D4           0.00000   0.00000   0.00000   0.00000   0.00000
                          A6        D1        D2        D3        D4
           A6           0.16000
           D1           0.00000   0.02445
           D2           0.00000   0.00000   0.02445
           D3           0.00000   0.00000   0.00000   0.02445
           D4           0.00000   0.00000   0.00000   0.00000   0.02445
     Eigenvalues ---    0.02445   0.02445   0.02445   0.16000   0.16000
     Eigenvalues ---    0.16000   0.16000   0.34763   0.34763   0.34763
     Eigenvalues ---    0.34763   0.503851000.000001000.000001000.00000
 RFO step:  Lambda= 0.00000000D+00.
 Linear search not attempted -- first point.
 Iteration  1 RMS(Cart)=  0.00008180 RMS(Int)=  0.00000000
 Iteration  2 RMS(Cart)=  0.00000000 RMS(Int)=  0.00000000
 Variable       Old X    -DE/DX   Delta X   Delta X   Delta X     New X
                                 (Linear)    (Quad)   (Total)
    R1        2.59478   0.00000   0.00000   0.00000   0.00000   2.59478
    R2        2.06061   0.00000   0.00000   0.00000   0.00000   2.06061
    R3        2.06061   0.00000   0.00000   0.00000   0.00000   2.06061
    R4        2.06061   0.00000   0.00000   0.00000   0.00000   2.06061
    R5        2.06061   0.00000   0.00000   0.00000   0.00000   2.06061
    A1        2.15623   0.00000   0.00000   0.00000   0.00000   2.15623
    A2        2.15623   0.00000   0.00000   0.00000   0.00000   2.15623
    A3        1.97072   0.00000   0.00000   0.00000   0.00000   1.97073
    A4        2.15623   0.00000   0.00000   0.00000   0.00000   2.15623
    A5        2.15623   0.00000   0.00000   0.00000   0.00000   2.15623
    A6        1.97072   0.00000   0.00000   0.00000   0.00000   1.97073
    D1        1.54458   0.00000   0.00000  -0.00018  -0.00018   1.54440
    D2       -1.59701   0.00000   0.00000  -0.00018  -0.00018  -1.59719
    D3       -1.59701   0.00000   0.00000  -0.00018  -0.00018  -1.59719
    D4        1.54458   0.00000   0.00000  -0.00018  -0.00018   1.54440
         Item               Value     Threshold  Converged?
 Maximum Force            0.000005     0.000015     YES
 RMS     Force            0.000002     0.000010     YES
 Maximum Displacement     0.000112     0.000060     NO 
 RMS     Displacement     0.000082     0.000040     NO 
 Predicted change in Energy=-1.665368D-09
 GradGradGradGradGradGradGradGradGradGradGradGradGradGradGradGradGradGrad

 Leave Link  103 at Fri Feb 24 12:09:10 2006, MaxMem=    6291456 cpu:       0.0
 (Enter /tftpboot/usr/local/g03/l202.exe)
                          Input orientation:                          
 ---------------------------------------------------------------------
 Center     Atomic     Atomic              Coordinates (Angstroms)
 Number     Number      Type              X           Y           Z
 ---------------------------------------------------------------------
    1          6             0        0.000000    0.000000   -0.686550
    2          6             0        0.000000    0.000000    0.686550
    3          1             0       -0.634111    0.651074    1.289077
    4          1             0        0.634111   -0.651074    1.289077
    5          1             0        0.634111    0.651074   -1.289077
    6          1             0       -0.634111   -0.651074   -1.289077
 ---------------------------------------------------------------------
                    Distance matrix (angstroms):
                    1          2          3          4          5
     1  C    0.000000
     2  C    1.373100   0.000000
     3  H    2.174648   1.090428   0.000000
     4  H    2.174648   1.090428   1.817684   0.000000
     5  H    1.090428   2.174648   2.873197   2.888333   0.000000
     6  H    1.090428   2.174648   2.888333   2.873197   1.817684
                    6
     6  H    0.000000
 Stoichiometry    C2H4
 Framework group  D2[C2(C.C),X(H4)]
 Deg. of freedom     4
 Full point group                 D2      NOp   4
 Largest Abelian subgroup         D2      NOp   4
 Largest concise Abelian subgroup D2      NOp   4
                         Standard orientation:                         
 ---------------------------------------------------------------------
 Center     Atomic     Atomic              Coordinates (Angstroms)
 Number     Number      Type              X           Y           Z
 ---------------------------------------------------------------------
    1          6             0        0.000000    0.000000   -0.686550
    2          6             0        0.000000    0.000000    0.686550
    3          1             0       -0.634111    0.651074    1.289077
    4          1             0        0.634111   -0.651074    1.289077
    5          1             0        0.634111    0.651074   -1.289077
    6          1             0       -0.634111   -0.651074   -1.289077
 ---------------------------------------------------------------------
 Rotational constants (GHZ):    151.7732085     25.7422513     25.6275250
 Leave Link  202 at Fri Feb 24 12:09:10 2006, MaxMem=    6291456 cpu:       0.0
 (Enter /tftpboot/usr/local/g03/l301.exe)
 Standard basis: 6-311++G(d,p) (5D, 7F)
 There are    19 symmetry adapted basis functions of A   symmetry.
 There are    19 symmetry adapted basis functions of B1  symmetry.
 There are    17 symmetry adapted basis functions of B2  symmetry.
 There are    17 symmetry adapted basis functions of B3  symmetry.
 Integral buffers will be    262144 words long.
 Raffenetti 1 integral format.
 Two-electron integral symmetry is turned on.
    72 basis functions,   108 primitive gaussians,    74 cartesian basis functions
     8 alpha electrons        8 beta electrons
       nuclear repulsion energy        32.6782069097 Hartrees.
 IExCor=   0 DFT=F Ex=HF Corr=None ExCW=0 ScaHFX=  1.000000
 ScaDFX=  1.000000  1.000000  1.000000  1.000000
 IRadAn=      0 IRanWt=     -1 IRanGd=            0 ICorTp=0
 NAtoms=    6 NActive=    6 NUniq=    2 SFac= 5.66D+00 NAtFMM=   60 Big=F
 Leave Link  301 at Fri Feb 24 12:09:11 2006, MaxMem=    6291456 cpu:       0.0
 (Enter /tftpboot/usr/local/g03/l302.exe)
 NPDir=0 NMtPBC=     1 NCelOv=     1 NCel=       1 NClECP=     1 NCelD=      1
         NCelK=      1 NCelE2=     1 NClLst=     1 CellRange=     0.0.
 One-electron integrals computed using PRISM.
 One-electron integral symmetry used in STVInt
 NBasis=    72 RedAO= T  NBF=    19    19    17    17
 NBsUse=    72 1.00D-06 NBFU=    19    19    17    17
 Leave Link  302 at Fri Feb 24 12:09:11 2006, MaxMem=    6291456 cpu:       0.2
 (Enter /tftpboot/usr/local/g03/l308.exe)
 Leave Link  308 at Fri Feb 24 12:09:11 2006, MaxMem=    6291456 cpu:       0.0
 (Enter /tftpboot/usr/local/g03/l303.exe)
 DipDrv:  MaxL=1.
 Leave Link  303 at Fri Feb 24 12:09:11 2006, MaxMem=    6291456 cpu:       0.0
 (Enter /tftpboot/usr/local/g03/l401.exe)
 Initial guess read from the read-write file:
 Guess basis will be translated and rotated to current coordinates.
 Initial guess orbital symmetries:
       Occupied  (A) (B1) (A) (B1) (A) (B2) (B3) (B3)
       Virtual   (B2) (A) (B1) (B3) (B2) (A) (B1) (B3) (B2) (A)
                 (B1) (B3) (B2) (B1) (A) (B2) (B3) (B1) (A) (B2)
                 (B3) (B1) (A) (B3) (B2) (B2) (B3) (B1) (A) (B1)
                 (A) (B1) (B3) (B2) (B1) (B3) (A) (B2) (A) (B2)
                 (B3) (A) (B1) (B3) (B2) (B1) (A) (B1) (B3) (B2)
                 (B1) (A) (B2) (B1) (B3) (A) (B2) (B3) (A) (B2)
                 (B3) (B1) (A) (B1)
 The electronic state of the initial guess is 1-A.
 Leave Link  401 at Fri Feb 24 12:09:11 2006, MaxMem=    6291456 cpu:       0.1
 (Enter /tftpboot/usr/local/g03/l502.exe)
 Closed shell SCF:
 Requested convergence on RMS density matrix=1.00D-08 within 128 cycles.
 Requested convergence on MAX density matrix=1.00D-06.
 Requested convergence on             energy=1.00D-06.
 No special actions if energy rises.
 Using DIIS extrapolation, IDIIS=  1040.
 Integral symmetry usage will be decided dynamically.
 Keep R1 integrals in memory in canonical form, NReq=     4525706.
 IEnd=     35867 IEndB=     35867 NGot=   6291456 MDV=   2426066
 LenX=   2426066
 Symmetry not used in FoFDir.
 MinBra= 0 MaxBra= 2 Meth= 1.
 IRaf=       0 NMat=   1 IRICut=       1 DoRegI=T DoRafI=F ISym2E= 0 JSym2E=0.

 Cycle   1  Pass 1  IDiag  1:
 E= -77.8924480176317    
 DIIS: error= 6.34D-06 at cycle   1 NSaved=   1.
 NSaved= 1 IEnMin= 1 EnMin= -77.8924480176317     IErMin= 1 ErrMin= 6.34D-06
 ErrMax= 6.34D-06 EMaxC= 1.00D-01 BMatC= 1.27D-09 BMatP= 1.27D-09
 IDIUse=1 WtCom= 1.00D+00 WtEn= 0.00D+00
 Coeff-Com:  0.100D+01
 Coeff:      0.100D+01
 Gap=     0.291 Goal=   None    Shift=    0.000
 RMSDP=6.09D-07 MaxDP=5.43D-06              OVMax= 2.16D-05

 Cycle   2  Pass 1  IDiag  1:
 E= -77.8924480196243     Delta-E=       -0.000000001993 Rises=F Damp=F
 DIIS: error= 2.28D-06 at cycle   2 NSaved=   2.
 NSaved= 2 IEnMin= 2 EnMin= -77.8924480196243     IErMin= 2 ErrMin= 2.28D-06
 ErrMax= 2.28D-06 EMaxC= 1.00D-01 BMatC= 1.37D-10 BMatP= 1.27D-09
 IDIUse=1 WtCom= 1.00D+00 WtEn= 0.00D+00
 Coeff-Com: -0.776D-01 0.108D+01
 Coeff:     -0.776D-01 0.108D+01
 Gap=     0.291 Goal=   None    Shift=    0.000
 RMSDP=2.22D-07 MaxDP=2.38D-06 DE=-1.99D-09 OVMax= 8.50D-06

 Cycle   3  Pass 1  IDiag  1:
 E= -77.8924480199247     Delta-E=       -0.000000000300 Rises=F Damp=F
 DIIS: error= 1.12D-06 at cycle   3 NSaved=   3.
 NSaved= 3 IEnMin= 3 EnMin= -77.8924480199247     IErMin= 3 ErrMin= 1.12D-06
 ErrMax= 1.12D-06 EMaxC= 1.00D-01 BMatC= 2.08D-11 BMatP= 1.37D-10
 IDIUse=1 WtCom= 1.00D+00 WtEn= 0.00D+00
 Coeff-Com: -0.896D-01 0.117D+00 0.973D+00
 Coeff:     -0.896D-01 0.117D+00 0.973D+00
 Gap=     0.291 Goal=   None    Shift=    0.000
 RMSDP=1.26D-07 MaxDP=1.07D-06 DE=-3.00D-10 OVMax= 4.85D-06

 Cycle   4  Pass 1  IDiag  1:
 E= -77.8924480199897     Delta-E=       -0.000000000065 Rises=F Damp=F
 DIIS: error= 5.40D-07 at cycle   4 NSaved=   4.
 NSaved= 4 IEnMin= 4 EnMin= -77.8924480199897     IErMin= 4 ErrMin= 5.40D-07
 ErrMax= 5.40D-07 EMaxC= 1.00D-01 BMatC= 2.94D-12 BMatP= 2.08D-11
 IDIUse=1 WtCom= 1.00D+00 WtEn= 0.00D+00
 Coeff-Com:  0.381D-01-0.198D+00-0.266D+00 0.143D+01
 Coeff:      0.381D-01-0.198D+00-0.266D+00 0.143D+01
 Gap=     0.291 Goal=   None    Shift=    0.000
 RMSDP=7.68D-08 MaxDP=6.71D-07 DE=-6.49D-11 OVMax= 3.27D-06

 Cycle   5  Pass 1  IDiag  1:
 E= -77.8924480200025     Delta-E=       -0.000000000013 Rises=F Damp=F
 DIIS: error= 7.89D-08 at cycle   5 NSaved=   5.
 NSaved= 5 IEnMin= 5 EnMin= -77.8924480200025     IErMin= 5 ErrMin= 7.89D-08
 ErrMax= 7.89D-08 EMaxC= 1.00D-01 BMatC= 5.88D-14 BMatP= 2.94D-12
 IDIUse=1 WtCom= 1.00D+00 WtEn= 0.00D+00
 Coeff-Com: -0.101D-01 0.600D-01 0.728D-01-0.512D+00 0.139D+01
 Coeff:     -0.101D-01 0.600D-01 0.728D-01-0.512D+00 0.139D+01
 Gap=     0.291 Goal=   None    Shift=    0.000
 RMSDP=7.69D-09 MaxDP=5.96D-08 DE=-1.28D-11 OVMax= 4.89D-07

 SCF Done:  E(RHF) =  -77.8924480200     A.U. after    5 cycles
             Convg  =    0.7691D-08             -V/T =  2.0002
             S**2   =   0.0000
 KE= 7.787829665273D+01 PE=-2.462254966552D+02 EE= 5.777654507275D+01
 Leave Link  502 at Fri Feb 24 12:09:12 2006, MaxMem=    6291456 cpu:       1.1
 (Enter /tftpboot/usr/local/g03/l801.exe)
 ExpMin= 3.60D-02 ExpMax= 4.56D+03 ExpMxC= 6.82D+02 IAcc=3 IRadAn=         5 AccDes= 0.00D+00
 HarFok:  IExCor= 205 AccDes= 0.00D+00 IRadAn=         5 IDoV=1
 ScaDFX=  1.000000  1.000000  1.000000  1.000000
 Largest valence mixing into a core orbital is  1.29D-04
 Largest core mixing into a valence orbital is  3.54D-05
 Range of M.O.s used for correlation:     3    72
 NBasis=    72 NAE=     8 NBE=     8 NFC=     2 NFV=     0
 NROrb=     70 NOA=     6 NOB=     6 NVA=    64 NVB=    64

 **** Warning!!: The largest alpha MO coefficient is  0.41352368D+02

 Leave Link  801 at Fri Feb 24 12:09:13 2006, MaxMem=    6291456 cpu:       0.6
 (Enter /tftpboot/usr/local/g03/l804.exe)
 Closed-shell transformation, MDV=     6291456 ITran=3 ISComp=1.
 Direct transformation and sort for antisymmetrization.
 JobTyp= 0 Pass  1:  I=   1 to   6.
 Spin components of T(2) and E(2):
     alpha-alpha T2 =       0.1267405801D-01 E2=     -0.3305424930D-01
     alpha-beta  T2 =       0.9871858791D-01 E2=     -0.2397715173D+00
     beta-beta   T2 =       0.1267405801D-01 E2=     -0.3305424930D-01
 ANorm=    0.1060220121D+01
 E2=       -0.3058800159D+00 EUMP2=       -0.78198328035893D+02
 Leave Link  804 at Fri Feb 24 12:09:17 2006, MaxMem=    6291456 cpu:       3.4
 (Enter /tftpboot/usr/local/g03/l914.exe)
 RHF ground state
 MDV=   6291456 DFT=F DoStab=F Mixed=F DoRPA=F DoScal=F NonHer=F
 Making orbital integer symmetry assigments:
 Orbital symmetries:
       Occupied  (A) (B1) (A) (B1) (A) (B2) (B3) (B3)
       Virtual   (B2) (A) (B1) (B3) (B2) (A) (B1) (B3) (B2) (A)
                 (B1) (B3) (B2) (B1) (A) (B2) (B3) (B1) (A) (B2)
                 (B3) (B1) (A) (B3) (B2) (B2) (B3) (B1) (A) (B1)
                 (A) (B1) (B3) (B2) (B1) (B3) (A) (B2) (A) (B2)
                 (B3) (A) (B1) (B3) (B2) (B1) (A) (B1) (B3) (B2)
                 (B1) (A) (B2) (B1) (B3) (A) (B2) (B3) (A) (B2)
                 (B3) (B1) (A) (B1)
 Petite list used in FoFDir.
 MinBra= 0 MaxBra= 2 Meth= 1.
 IRaf=       0 NMat=   1 IRICut=       1 DoRegI=T DoRafI=F ISym2E= 1 JSym2E=1.
 Restoring guess from checkpoint file densities.
 Convergence on wavefunction:    0.000001000000000
 Davidson Disk Diagonalization:  ConvIn= 1.00D-06 SkipCon=T Conv= 1.00D-06.
 Max sub-space:   200 roots to seek:     3 dimension of matrix:    768
 Iteration     1 Dimension     3 NMult     3
 Excitation Energies [eV] at current iteration:
 Root      1 :     1.152773094997519
 Root      2 :     4.151218986623403
 Root      3 :     4.906938867505073
 Iteration     2 Dimension     6 NMult     6
 Root      1 not converged, maximum delta is    0.000025364404466
 Root      2 not converged, maximum delta is    0.000037074699582
 Root      3 not converged, maximum delta is    0.000037169941596
 Excitation Energies [eV] at current iteration:
 Root      1 :     1.152773057530172   Change is   -0.000000037467347
 Root      2 :     4.151218959656982   Change is   -0.000000026966421
 Root      3 :     4.906938840874308   Change is   -0.000000026630765
 Iteration     3 Dimension     9 NMult     9
 Root      1 not converged, maximum delta is    0.000005784793177
 Root      2 not converged, maximum delta is    0.000002848313114
 Root      3 not converged, maximum delta is    0.000003037040191
 Excitation Energies [eV] at current iteration:
 Root      1 :     1.152773054859881   Change is   -0.000000002670292
 Root      2 :     4.151218959174478   Change is   -0.000000000482504
 Root      3 :     4.906938840374858   Change is   -0.000000000499449
 Iteration     4 Dimension    12 NMult    12
 Root      1 not converged, maximum delta is    0.000001652580101
 Root      2 has converged.
 Root      3 has converged.
 Excitation Energies [eV] at current iteration:
 Root      1 :     1.152773054634445   Change is   -0.000000000225435
 Root      2 :     4.151218959165274   Change is   -0.000000000009204
 Root      3 :     4.906938840360434   Change is   -0.000000000014424
 Iteration     5 Dimension    13 NMult    13
 Root      1 has converged.
 Root      2 has converged.
 Root      3 has converged.
 Excitation Energies [eV] at current iteration:
 Root      1 :     1.152773054621579   Change is   -0.000000000012866
 Root      2 :     4.151218959165276   Change is    0.000000000000002
 Root      3 :     4.906938840360429   Change is   -0.000000000000005
 Convergence achieved on expansion vectors.
 ***********************************************************************
 Excited states from <AA,BB:AA,BB> singles matrix:
 ***********************************************************************
 
 1PDM for each excited state written to RWF  633
 Ground to excited state Transition electric dipole moments (Au):
       state          X           Y           Z          Osc.
         1         0.0000      0.0000      0.9896      0.0277
         2         0.4976      0.0000      0.0000      0.0252
         3         0.0000     -0.5518      0.0000      0.0366
 Ground to excited state transition velocity dipole Moments (Au):
       state          X           Y           Z          Osc.
         1         0.0000      0.0000      0.1127      0.1998
         2        -0.0504      0.0000      0.0000      0.0111
         3         0.0000      0.1047      0.0000      0.0405
 Ground to excited state transition magnetic dipole Moments (Au):
       state          X           Y           Z
         1         0.0000      0.0000      0.5679
         2         0.6150      0.0000      0.0000
         3         0.0000     -0.1441      0.0000
 <0|del|b> * <b|rxdel|0>  (Au), Rotatory Strengths (R) in
 cgs (10**-40 erg-esu-cm/Gauss)
       state          X           Y           Z     R(velocity)
         1         0.0000      0.0000      0.0640    356.0307
         2        -0.0310      0.0000      0.0000    -47.9204
         3         0.0000     -0.0151      0.0000    -19.7124
 <0|r|b> * <b|rxdel|0>  (Au), Rotatory Strengths (R) in
 cgs (10**-40 erg-esu-cm/Gauss)
       state          X           Y           Z     R(length)
         1         0.0000      0.0000      0.5620   -132.4697
         2         0.3060      0.0000      0.0000    -72.1278
         3         0.0000      0.0795      0.0000    -18.7384
  <0|del|b> * <b|r|0>  (Au)
       state          X           Y           Z       Osc.(frdel)
         1         0.0000      0.0000      0.1115     -0.0743
         2        -0.0251      0.0000      0.0000      0.0167
         3         0.0000     -0.0578      0.0000      0.0385
 Ground to excited state transition densities written to RWF  633

 Excitation energies and oscillator strengths:
 
 Excited State   1:   Singlet-B1     1.1528 eV 1075.53 nm  f=0.0277
       8 ->  9         0.67544
       8 -> 17        -0.14971
 This state for optimization and/or second-order correction.
 Total Energy, E(CIS) =  -77.8500843873    
 Copying the excited state density for this state as the 1-particle RhoCI density.
 
 Excited State   2:   Singlet-B3     4.1512 eV  298.67 nm  f=0.0252
       8 -> 10         0.66838
       8 -> 18        -0.19635
 
 Excited State   3:   Singlet-B2     4.9069 eV  252.67 nm  f=0.0366
       8 -> 11         0.67885
       8 -> 22         0.16444
 The selected state is a singlet
 Cannot handle 2e integral symmetry, ISym2E=1.
 CISAX:  IP=  1 NPass=   1 NMax=   1.
 CISAX will form   1 AO SS matrices at one time.
 NMat=  1 NSing=  1.
 Leave Link  914 at Fri Feb 24 12:09:19 2006, MaxMem=    6291456 cpu:       1.6
 (Enter /tftpboot/usr/local/g03/l1002.exe)
 Minotr:  Closed-shell wavefunction.
          Computing CIS derivatives.
          Using Z-Vector for PSCF gradient.
          Skipping F1 and S1 gradient terms here.
          Frozen-core window.
          Direct CPHF calculation.
          Solving linear equations simultaneously.
          Differentiating once with respect to electric field.
                with respect to dipole field.
          Differentiating once with respect to nuclear coordinates.
          Requested convergence is 1.0D-10 RMS, and 1.0D-09 maximum.
          Secondary convergence is 1.0D-12 RMS, and 1.0D-12 maximum.
          NewPWx=F KeepS1=T KeepF1=T KeepIn=T MapXYZ=F.
          MDV=       6291456 using IRadAn=       2.
          Store integrals in memory, NReq=     4282752.
 Symmetry not used in FoFDir.
 MinBra= 0 MaxBra= 2 Meth= 1.
 IRaf=       0 NMat=   1 IRICut=       1 DoRegI=T DoRafI=F ISym2E= 0 JSym2E=0.
          There are   1 degrees of freedom in the 1st order CPHF.
     1 vectors were produced by pass  0.
 AX will form   1 AO Fock derivatives at one time.
     1 vectors were produced by pass  1.
     1 vectors were produced by pass  2.
     1 vectors were produced by pass  3.
     1 vectors were produced by pass  4.
     1 vectors were produced by pass  5.
     1 vectors were produced by pass  6.
     1 vectors were produced by pass  7.
     1 vectors were produced by pass  8.
     1 vectors were produced by pass  9.
 Inv2:  IOpt= 1 Iter= 1 AM= 3.47D-16 Conv= 1.00D-12.
 Inverted reduced A of dimension   10 with in-core refinement.
 End of Minotr Frequency-dependent properties file   721 does not exist.
 Leave Link 1002 at Fri Feb 24 12:09:21 2006, MaxMem=    6291456 cpu:       1.3
 (Enter /tftpboot/usr/local/g03/l701.exe)
 Compute integral first derivatives.
 ... and contract with generalized density number  6.
 Leave Link  701 at Fri Feb 24 12:09:21 2006, MaxMem=    6291456 cpu:       0.2
 (Enter /tftpboot/usr/local/g03/l702.exe)
 L702 exits ... SP integral derivatives will be done elsewhere.
 Leave Link  702 at Fri Feb 24 12:09:21 2006, MaxMem=    6291456 cpu:       0.0
 (Enter /tftpboot/usr/local/g03/l703.exe)
 Compute integral first derivatives, UseDBF=F.
 Integral derivatives from FoFDir, PRISM(SPDF).
 Use density number 6.
 Generate 2PDM for CIS state  1.
 Petite list used in FoFDir.
 MinBra= 0 MaxBra= 2 Meth= 1.
 IRaf=       0 NMat=   1 IRICut=       1 DoRegI=T DoRafI=F ISym2E= 1 JSym2E=1.
 Leave Link  703 at Fri Feb 24 12:09:22 2006, MaxMem=    6291456 cpu:       1.1
 (Enter /tftpboot/usr/local/g03/l716.exe)
 Use density number 6.
 Dipole        = 4.44089210D-16 1.11022302D-15-8.88178420D-16
 ***** Axes restored to original set *****
 -------------------------------------------------------------------
 Center     Atomic                   Forces (Hartrees/Bohr)
 Number     Number              X              Y              Z
 -------------------------------------------------------------------
    1          6           0.000000000    0.000000000   -0.000001201
    2          6           0.000000000    0.000000000    0.000001201
    3          1          -0.000000102   -0.000000051   -0.000000198
    4          1           0.000000102    0.000000051   -0.000000198
    5          1           0.000000102   -0.000000051    0.000000198
    6          1          -0.000000102    0.000000051    0.000000198
 -------------------------------------------------------------------
 Cartesian Forces:  Max     0.000001201 RMS     0.000000415
 Leave Link  716 at Fri Feb 24 12:09:22 2006, MaxMem=    6291456 cpu:       0.0
 (Enter /tftpboot/usr/local/g03/l103.exe)

 GradGradGradGradGradGradGradGradGradGradGradGradGradGradGradGradGradGrad
 Berny optimization.
 Internal  Forces:  Max     0.000000805 RMS     0.000000245
 Search for a local minimum.
 Step number   2 out of a maximum of 100
 All quantities printed in internal units (Hartrees-Bohrs-Radians)
 Update second derivatives using D2CorX and points  2  1
 Trust test=-2.90D+00 RLast= 3.69D-04 DXMaxT set to 5.00D-02
 The second derivative matrix:
                          R1        R2        R3        R4        R5
           R1           0.50410
           R2          -0.00005   0.34764
           R3          -0.00005   0.00001   0.34764
           R4          -0.00005   0.00001   0.00001   0.34764
           R5          -0.00005   0.00001   0.00001   0.00001   0.34764
           A1           0.00003   0.00000   0.00000   0.00000   0.00000
           A2           0.00003   0.00000   0.00000   0.00000   0.00000
           A3          -0.00005   0.00000   0.00000   0.00000   0.00000
           A4           0.00003   0.00000   0.00000   0.00000   0.00000
           A5           0.00003   0.00000   0.00000   0.00000   0.00000
           A6          -0.00005   0.00000   0.00000   0.00000   0.00000
           D1           0.00109  -0.00011  -0.00011  -0.00011  -0.00011
           D2           0.00109  -0.00011  -0.00011  -0.00011  -0.00011
           D3           0.00109  -0.00011  -0.00011  -0.00011  -0.00011
           D4           0.00109  -0.00011  -0.00011  -0.00011  -0.00011
                          A1        A2        A3        A4        A5
           A1           0.15999
           A2          -0.00001   0.15999
           A3           0.00003   0.00003   0.15994
           A4          -0.00001  -0.00001   0.00003   0.15999
           A5          -0.00001  -0.00001   0.00003  -0.00001   0.15999
           A6           0.00003   0.00003  -0.00006   0.00003   0.00003
           D1          -0.00017  -0.00017   0.00034  -0.00017  -0.00017
           D2          -0.00017  -0.00017   0.00034  -0.00017  -0.00017
           D3          -0.00017  -0.00017   0.00034  -0.00017  -0.00017
           D4          -0.00017  -0.00017   0.00034  -0.00017  -0.00017
                          A6        D1        D2        D3        D4
           A6           0.15994
           D1           0.00034   0.02458
           D2           0.00034   0.00013   0.02458
           D3           0.00034   0.00013   0.00013   0.02458
           D4           0.00034   0.00013   0.00013   0.00013   0.02458
     Eigenvalues ---    0.02445   0.02445   0.02495   0.15984   0.16000
     Eigenvalues ---    0.16000   0.16000   0.34763   0.34763   0.34763
     Eigenvalues ---    0.34766   0.504111000.000001000.000001000.00000
 RFO step:  Lambda= 0.00000000D+00.
 Quartic linear search produced a step of -0.91419.
 Iteration  1 RMS(Cart)=  0.00007482 RMS(Int)=  0.00000000
 Iteration  2 RMS(Cart)=  0.00000000 RMS(Int)=  0.00000000
 Variable       Old X    -DE/DX   Delta X   Delta X   Delta X     New X
                                 (Linear)    (Quad)   (Total)
    R1        2.59478   0.00000   0.00000   0.00000   0.00000   2.59478
    R2        2.06061   0.00000   0.00000   0.00000   0.00000   2.06061
    R3        2.06061   0.00000   0.00000   0.00000   0.00000   2.06061
    R4        2.06061   0.00000   0.00000   0.00000   0.00000   2.06061
    R5        2.06061   0.00000   0.00000   0.00000   0.00000   2.06061
    A1        2.15623   0.00000   0.00000   0.00000   0.00000   2.15623
    A2        2.15623   0.00000   0.00000   0.00000   0.00000   2.15623
    A3        1.97073   0.00000   0.00000   0.00000   0.00000   1.97073
    A4        2.15623   0.00000   0.00000   0.00000   0.00000   2.15623
    A5        2.15623   0.00000   0.00000   0.00000   0.00000   2.15623
    A6        1.97073   0.00000   0.00000   0.00000   0.00000   1.97073
    D1        1.54440   0.00000   0.00017   0.00000   0.00017   1.54457
    D2       -1.59719   0.00000   0.00017   0.00000   0.00017  -1.59702
    D3       -1.59719   0.00000   0.00017   0.00000   0.00017  -1.59702
    D4        1.54440   0.00000   0.00017   0.00000   0.00017   1.54457
         Item               Value     Threshold  Converged?
 Maximum Force            0.000001     0.000015     YES
 RMS     Force            0.000000     0.000010     YES
 Maximum Displacement     0.000104     0.000060     NO 
 RMS     Displacement     0.000075     0.000040     NO 
 Predicted change in Energy=-1.358531D-09
 GradGradGradGradGradGradGradGradGradGradGradGradGradGradGradGradGradGrad

 Leave Link  103 at Fri Feb 24 12:09:23 2006, MaxMem=    6291456 cpu:       0.0
 (Enter /tftpboot/usr/local/g03/l202.exe)
                          Input orientation:                          
 ---------------------------------------------------------------------
 Center     Atomic     Atomic              Coordinates (Angstroms)
 Number     Number      Type              X           Y           Z
 ---------------------------------------------------------------------
    1          6             0        0.000000    0.000000   -0.686550
    2          6             0        0.000000    0.000000    0.686550
    3          1             0       -0.634166    0.651021    1.289077
    4          1             0        0.634166   -0.651021    1.289077
    5          1             0        0.634166    0.651021   -1.289077
    6          1             0       -0.634166   -0.651021   -1.289077
 ---------------------------------------------------------------------
                    Distance matrix (angstroms):
                    1          2          3          4          5
     1  C    0.000000
     2  C    1.373100   0.000000
     3  H    2.174648   1.090428   0.000000
     4  H    2.174648   1.090428   1.817684   0.000000
     5  H    1.090428   2.174648   2.873245   2.888284   0.000000
     6  H    1.090428   2.174648   2.888284   2.873245   1.817684
                    6
     6  H    0.000000
 Stoichiometry    C2H4
 Framework group  D2[C2(C.C),X(H4)]
 Deg. of freedom     4
 Full point group                 D2      NOp   4
 Largest Abelian subgroup         D2      NOp   4
 Largest concise Abelian subgroup D2      NOp   4
                         Standard orientation:                         
 ---------------------------------------------------------------------
 Center     Atomic     Atomic              Coordinates (Angstroms)
 Number     Number      Type              X           Y           Z
 ---------------------------------------------------------------------
    1          6             0        0.000000    0.000000   -0.686550
    2          6             0        0.000000    0.000000    0.686550
    3          1             0       -0.634166    0.651021    1.289077
    4          1             0        0.634166   -0.651021    1.289077
    5          1             0        0.634166    0.651021   -1.289077
    6          1             0       -0.634166   -0.651021   -1.289077
 ---------------------------------------------------------------------
 Rotational constants (GHZ):    151.7732449     25.7418797     25.6278866
 Leave Link  202 at Fri Feb 24 12:09:23 2006, MaxMem=    6291456 cpu:       0.0
 (Enter /tftpboot/usr/local/g03/l301.exe)
 Standard basis: 6-311++G(d,p) (5D, 7F)
 There are    19 symmetry adapted basis functions of A   symmetry.
 There are    19 symmetry adapted basis functions of B1  symmetry.
 There are    17 symmetry adapted basis functions of B2  symmetry.
 There are    17 symmetry adapted basis functions of B3  symmetry.
 Integral buffers will be    262144 words long.
 Raffenetti 1 integral format.
 Two-electron integral symmetry is turned on.
    72 basis functions,   108 primitive gaussians,    74 cartesian basis functions
     8 alpha electrons        8 beta electrons
       nuclear repulsion energy        32.6782058874 Hartrees.
 IExCor=   0 DFT=F Ex=HF Corr=None ExCW=0 ScaHFX=  1.000000
 ScaDFX=  1.000000  1.000000  1.000000  1.000000
 IRadAn=      0 IRanWt=     -1 IRanGd=            0 ICorTp=0
 NAtoms=    6 NActive=    6 NUniq=    2 SFac= 5.66D+00 NAtFMM=   60 Big=F
 Leave Link  301 at Fri Feb 24 12:09:23 2006, MaxMem=    6291456 cpu:       0.0
 (Enter /tftpboot/usr/local/g03/l302.exe)
 NPDir=0 NMtPBC=     1 NCelOv=     1 NCel=       1 NClECP=     1 NCelD=      1
         NCelK=      1 NCelE2=     1 NClLst=     1 CellRange=     0.0.
 One-electron integrals computed using PRISM.
 One-electron integral symmetry used in STVInt
 NBasis=    72 RedAO= T  NBF=    19    19    17    17
 NBsUse=    72 1.00D-06 NBFU=    19    19    17    17
 Leave Link  302 at Fri Feb 24 12:09:23 2006, MaxMem=    6291456 cpu:       0.2
 (Enter /tftpboot/usr/local/g03/l308.exe)
 Leave Link  308 at Fri Feb 24 12:09:23 2006, MaxMem=    6291456 cpu:       0.0
 (Enter /tftpboot/usr/local/g03/l303.exe)
 DipDrv:  MaxL=1.
 Leave Link  303 at Fri Feb 24 12:09:23 2006, MaxMem=    6291456 cpu:       0.0
 (Enter /tftpboot/usr/local/g03/l401.exe)
 Initial guess read from the read-write file:
 Guess basis will be translated and rotated to current coordinates.
 Initial guess orbital symmetries:
       Occupied  (A) (B1) (A) (B1) (A) (B2) (B3) (B3)
       Virtual   (B2) (A) (B1) (B3) (B2) (A) (B1) (B3) (B2) (A)
                 (B1) (B3) (B2) (B1) (A) (B2) (B3) (B1) (A) (B2)
                 (B3) (B1) (A) (B3) (B2) (B2) (B3) (B1) (A) (B1)
                 (A) (B1) (B3) (B2) (B1) (B3) (A) (B2) (A) (B2)
                 (B3) (A) (B1) (B3) (B2) (B1) (A) (B1) (B3) (B2)
                 (B1) (A) (B2) (B1) (B3) (A) (B2) (B3) (A) (B2)
                 (B3) (B1) (A) (B1)
 The electronic state of the initial guess is 1-A.
 Leave Link  401 at Fri Feb 24 12:09:24 2006, MaxMem=    6291456 cpu:       0.1
 (Enter /tftpboot/usr/local/g03/l502.exe)
 Closed shell SCF:
 Requested convergence on RMS density matrix=1.00D-08 within 128 cycles.
 Requested convergence on MAX density matrix=1.00D-06.
 Requested convergence on             energy=1.00D-06.
 No special actions if energy rises.
 Using DIIS extrapolation, IDIIS=  1040.
 Integral symmetry usage will be decided dynamically.
 Keep R1 integrals in memory in canonical form, NReq=     4525706.
 IEnd=     35867 IEndB=     35867 NGot=   6291456 MDV=   2426066
 LenX=   2426066
 Symmetry not used in FoFDir.
 MinBra= 0 MaxBra= 2 Meth= 1.
 IRaf=       0 NMat=   1 IRICut=       1 DoRegI=T DoRafI=F ISym2E= 0 JSym2E=0.

 Cycle   1  Pass 1  IDiag  1:
 E= -77.8924149698289    
 DIIS: error= 5.80D-06 at cycle   1 NSaved=   1.
 NSaved= 1 IEnMin= 1 EnMin= -77.8924149698289     IErMin= 1 ErrMin= 5.80D-06
 ErrMax= 5.80D-06 EMaxC= 1.00D-01 BMatC= 1.07D-09 BMatP= 1.07D-09
 IDIUse=1 WtCom= 1.00D+00 WtEn= 0.00D+00
 Coeff-Com:  0.100D+01
 Coeff:      0.100D+01
 Gap=     0.291 Goal=   None    Shift=    0.000
 RMSDP=5.58D-07 MaxDP=4.95D-06              OVMax= 1.98D-05

 Cycle   2  Pass 1  IDiag  1:
 E= -77.8924149715006     Delta-E=       -0.000000001672 Rises=F Damp=F
 DIIS: error= 2.09D-06 at cycle   2 NSaved=   2.
 NSaved= 2 IEnMin= 2 EnMin= -77.8924149715006     IErMin= 2 ErrMin= 2.09D-06
 ErrMax= 2.09D-06 EMaxC= 1.00D-01 BMatC= 1.15D-10 BMatP= 1.07D-09
 IDIUse=1 WtCom= 1.00D+00 WtEn= 0.00D+00
 Coeff-Com: -0.774D-01 0.108D+01
 Coeff:     -0.774D-01 0.108D+01
 Gap=     0.291 Goal=   None    Shift=    0.000
 RMSDP=2.03D-07 MaxDP=2.18D-06 DE=-1.67D-09 OVMax= 7.79D-06

 Cycle   3  Pass 1  IDiag  1:
 E= -77.8924149717529     Delta-E=       -0.000000000252 Rises=F Damp=F
 DIIS: error= 1.03D-06 at cycle   3 NSaved=   3.
 NSaved= 3 IEnMin= 3 EnMin= -77.8924149717529     IErMin= 3 ErrMin= 1.03D-06
 ErrMax= 1.03D-06 EMaxC= 1.00D-01 BMatC= 1.75D-11 BMatP= 1.15D-10
 IDIUse=1 WtCom= 1.00D+00 WtEn= 0.00D+00
 Coeff-Com: -0.898D-01 0.117D+00 0.973D+00
 Coeff:     -0.898D-01 0.117D+00 0.973D+00
 Gap=     0.291 Goal=   None    Shift=    0.000
 RMSDP=1.15D-07 MaxDP=9.78D-07 DE=-2.52D-10 OVMax= 4.44D-06

 Cycle   4  Pass 1  IDiag  1:
 E= -77.8924149718076     Delta-E=       -0.000000000055 Rises=F Damp=F
 DIIS: error= 4.95D-07 at cycle   4 NSaved=   4.
 NSaved= 4 IEnMin= 4 EnMin= -77.8924149718076     IErMin= 4 ErrMin= 4.95D-07
 ErrMax= 4.95D-07 EMaxC= 1.00D-01 BMatC= 2.46D-12 BMatP= 1.75D-11
 IDIUse=1 WtCom= 1.00D+00 WtEn= 0.00D+00
 Coeff-Com:  0.380D-01-0.197D+00-0.266D+00 0.142D+01
 Coeff:      0.380D-01-0.197D+00-0.266D+00 0.142D+01
 Gap=     0.291 Goal=   None    Shift=    0.000
 RMSDP=7.03D-08 MaxDP=6.14D-07 DE=-5.47D-11 OVMax= 3.00D-06

 Cycle   5  Pass 1  IDiag  1:
 E= -77.8924149718183     Delta-E=       -0.000000000011 Rises=F Damp=F
 DIIS: error= 7.21D-08 at cycle   5 NSaved=   5.
 NSaved= 5 IEnMin= 5 EnMin= -77.8924149718183     IErMin= 5 ErrMin= 7.21D-08
 ErrMax= 7.21D-08 EMaxC= 1.00D-01 BMatC= 4.92D-14 BMatP= 2.46D-12
 IDIUse=1 WtCom= 1.00D+00 WtEn= 0.00D+00
 Coeff-Com: -0.991D-02 0.590D-01 0.717D-01-0.506D+00 0.139D+01
 Coeff:     -0.991D-02 0.590D-01 0.717D-01-0.506D+00 0.139D+01
 Gap=     0.291 Goal=   None    Shift=    0.000
 RMSDP=7.08D-09 MaxDP=5.48D-08 DE=-1.07D-11 OVMax= 4.46D-07

 SCF Done:  E(RHF) =  -77.8924149718     A.U. after    5 cycles
             Convg  =    0.7078D-08             -V/T =  2.0002
             S**2   =   0.0000
 KE= 7.787832192904D+01 PE=-2.462254528976D+02 EE= 5.777651010931D+01
 Leave Link  502 at Fri Feb 24 12:09:25 2006, MaxMem=    6291456 cpu:       1.1
 (Enter /tftpboot/usr/local/g03/l801.exe)
 ExpMin= 3.60D-02 ExpMax= 4.56D+03 ExpMxC= 6.82D+02 IAcc=3 IRadAn=         5 AccDes= 0.00D+00
 HarFok:  IExCor= 205 AccDes= 0.00D+00 IRadAn=         5 IDoV=1
 ScaDFX=  1.000000  1.000000  1.000000  1.000000
 Largest valence mixing into a core orbital is  1.29D-04
 Largest core mixing into a valence orbital is  3.54D-05
 Range of M.O.s used for correlation:     3    72
 NBasis=    72 NAE=     8 NBE=     8 NFC=     2 NFV=     0
 NROrb=     70 NOA=     6 NOB=     6 NVA=    64 NVB=    64

 **** Warning!!: The largest alpha MO coefficient is  0.41352450D+02

 Leave Link  801 at Fri Feb 24 12:09:25 2006, MaxMem=    6291456 cpu:       0.6
 (Enter /tftpboot/usr/local/g03/l804.exe)
 Closed-shell transformation, MDV=     6291456 ITran=3 ISComp=1.
 Direct transformation and sort for antisymmetrization.
 JobTyp= 0 Pass  1:  I=   1 to   6.
 Spin components of T(2) and E(2):
     alpha-alpha T2 =       0.1267421161D-01 E2=     -0.3305443563D-01
     alpha-beta  T2 =       0.9872310932D-01 E2=     -0.2397739888D+00
     beta-beta   T2 =       0.1267421161D-01 E2=     -0.3305443563D-01
 ANorm=    0.1060222398D+01
 E2=       -0.3058828601D+00 EUMP2=       -0.78198297831873D+02
 Leave Link  804 at Fri Feb 24 12:09:29 2006, MaxMem=    6291456 cpu:       3.4
 (Enter /tftpboot/usr/local/g03/l914.exe)
 RHF ground state
 MDV=   6291456 DFT=F DoStab=F Mixed=F DoRPA=F DoScal=F NonHer=F
 Making orbital integer symmetry assigments:
 Orbital symmetries:
       Occupied  (A) (B1) (A) (B1) (A) (B2) (B3) (B3)
       Virtual   (B2) (A) (B1) (B3) (B2) (A) (B1) (B3) (B2) (A)
                 (B1) (B3) (B2) (B1) (A) (B2) (B3) (B1) (A) (B2)
                 (B3) (B1) (A) (B3) (B2) (B2) (B3) (B1) (A) (B1)
                 (A) (B1) (B3) (B2) (B1) (B3) (A) (B2) (A) (B2)
                 (B3) (A) (B1) (B3) (B2) (B1) (A) (B1) (B3) (B2)
                 (B1) (A) (B2) (B1) (B3) (A) (B2) (B3) (A) (B2)
                 (B3) (B1) (A) (B1)
 Petite list used in FoFDir.
 MinBra= 0 MaxBra= 2 Meth= 1.
 IRaf=       0 NMat=   1 IRICut=       1 DoRegI=T DoRafI=F ISym2E= 1 JSym2E=1.
 Restoring guess from checkpoint file densities.
 Convergence on wavefunction:    0.000001000000000
 Davidson Disk Diagonalization:  ConvIn= 1.00D-06 SkipCon=T Conv= 1.00D-06.
 Max sub-space:   200 roots to seek:     3 dimension of matrix:    768
 Iteration     1 Dimension     3 NMult     3
 Excitation Energies [eV] at current iteration:
 Root      1 :     1.151873611765917
 Root      2 :     4.150779027795782
 Root      3 :     4.906505348807375
 Iteration     2 Dimension     6 NMult     6
 Root      1 not converged, maximum delta is    0.000022976736117
 Root      2 not converged, maximum delta is    0.000033751221188
 Root      3 not converged, maximum delta is    0.000033825126950
 Excitation Energies [eV] at current iteration:
 Root      1 :     1.151873580661284   Change is   -0.000000031104633
 Root      2 :     4.150779005431535   Change is   -0.000000022364246
[...]
 ! A3    A(1,2,4)               -0.0398                  1.6                    !
 ! A4    D(5,1,2,3)             -0.0449                  1.8                    !
 ! A5    D(6,1,2,4)              0.0449                  1.8                    !
 --------------------------------------------------------------------------------
 
                                                              Etilene S1
                                                             IR Spectrum
 
    333 3                                                              1     11            11                                        
    111 0                                                              5     33            00 9       77                             
    553 9                                                              2     85            10 4       43                             
    213 3                                                              9     56            04 6       53                             
 
    XX  X                                                                    X             XX         XX                             
        X                                                                    X                        XX                             
        X                                                                    X                        XX                             
        X                                                                    X                        XX                             
        X                                                                    X                         X                             
        X                                                                    X                                                       
        X                                                                    X                                                       
        X                                                                    X                                                       
                                                                             X                                                       
                                                                             X                                                       
                                                                             X                                                       
                                                                             X                                                       
                                                                             X                                                       
                                                                             X                                                       
                                                                             X                                                       
                                                                             X                                                       
                                                                             X                                                       
                                                                             X                                                       
                                                                             X                                                       
                                                                             X                                                       
 
 ***** Axes restored to original set *****
 -------------------------------------------------------------------
 Center     Atomic                   Forces (Hartrees/Bohr)
 Number     Number              X              Y              Z
 -------------------------------------------------------------------
    1          6           0.000000000    0.000000000   -0.000000331
    2          6           0.000000000    0.000000000    0.000000331
    3          1          -0.000000047   -0.000000010   -0.000000083
    4          1           0.000000047    0.000000010   -0.000000083
    5          1           0.000000047   -0.000000010    0.000000083
    6          1          -0.000000047    0.000000010    0.000000083
 -------------------------------------------------------------------
 Cartesian Forces:  Max     0.000000331 RMS     0.000000119
 Force constants in Cartesian coordinates: 
                1             2             3             4             5
      1  0.319860D+00
      2  0.208084D+00  0.327812D+00
      3  0.000000D+00  0.000000D+00  0.687341D+00
      4 -0.771290D-01 -0.107278D-02  0.000000D+00  0.319860D+00
      5  0.107279D-02 -0.763023D-01  0.000000D+00 -0.208084D+00  0.327812D+00
      6  0.000000D+00  0.000000D+00 -0.427489D+00  0.000000D+00  0.000000D+00
      7  0.111725D-01  0.242365D-02  0.533562D-04 -0.132538D+00  0.105929D+00
      8  0.167535D-02  0.109966D-01  0.152100D-02  0.106254D+00 -0.136752D+00
      9  0.136541D-01 -0.137898D-01 -0.143722D-01  0.908916D-01 -0.932524D-01
     10  0.111725D-01  0.242370D-02 -0.533431D-04 -0.132538D+00  0.105929D+00
     11  0.167534D-02  0.109966D-01 -0.152101D-02  0.106254D+00 -0.136752D+00
     12 -0.136541D-01  0.137898D-01 -0.143722D-01 -0.908916D-01  0.932524D-01
     13 -0.132538D+00 -0.105929D+00  0.835089D-01  0.111725D-01 -0.242366D-02
     14 -0.106254D+00 -0.136752D+00  0.873183D-01 -0.167535D-02  0.109965D-01
     15  0.908916D-01  0.932524D-01 -0.115554D+00  0.136541D-01  0.137898D-01
     16 -0.132538D+00 -0.105929D+00 -0.835089D-01  0.111725D-01 -0.242371D-02
     17 -0.106254D+00 -0.136752D+00 -0.873183D-01 -0.167535D-02  0.109966D-01
     18 -0.908916D-01 -0.932524D-01 -0.115554D+00 -0.136541D-01 -0.137898D-01
                6             7             8             9            10
      6  0.687341D+00
      7  0.835089D-01  0.136373D+00
      8 -0.873183D-01 -0.121235D+00  0.142162D+00
      9 -0.115554D+00 -0.947245D-01  0.973350D-01  0.135984D+00
     10 -0.835089D-01 -0.115990D-01  0.130938D-01 -0.100415D-01  0.136373D+00
     11  0.873183D-01  0.130938D-01 -0.127407D-01  0.100388D-01 -0.121235D+00
     12 -0.115554D+00  0.100415D-01 -0.100388D-01  0.635618D-02  0.947244D-01
     13  0.533312D-04 -0.601995D-02 -0.426383D-02  0.670512D-03  0.261122D-02
     14 -0.152098D-02  0.426383D-02  0.217073D-02  0.583641D-03 -0.447577D-02
     15 -0.143722D-01  0.670505D-03 -0.583644D-03 -0.629323D-02 -0.450259D-03
     16 -0.533351D-04  0.261122D-02  0.447576D-02 -0.450262D-03 -0.601994D-02
     17  0.152098D-02 -0.447576D-02 -0.583730D-02 -0.915294D-03  0.426382D-02
     18 -0.143722D-01  0.450257D-03 -0.915293D-03 -0.612139D-02 -0.670516D-03
               11            12            13            14            15
     11  0.142162D+00
     12 -0.973351D-01  0.135984D+00
     13  0.447575D-02  0.450264D-03  0.136373D+00
     14 -0.583730D-02  0.915291D-03  0.121235D+00  0.142162D+00
     15  0.915298D-03 -0.612139D-02 -0.947245D-01 -0.973351D-01  0.135984D+00
     16 -0.426381D-02 -0.670499D-03 -0.115990D-01 -0.130938D-01 -0.100415D-01
     17  0.217071D-02 -0.583648D-03 -0.130938D-01 -0.127407D-01 -0.100388D-01
     18  0.583646D-03 -0.629323D-02  0.100415D-01  0.100388D-01  0.635618D-02
               16            17            18
     16  0.136373D+00
     17  0.121235D+00  0.142162D+00
     18  0.947245D-01  0.973350D-01  0.135984D+00
 Force constants in internal coordinates: 
                1             2             3             4             5
      1  0.509808D+00
      2  0.154709D-01  0.347609D+00
      3  0.154709D-01  0.642084D-02  0.347609D+00
      4  0.154709D-01  0.258618D-02  0.261825D-02  0.347609D+00
      5  0.154709D-01  0.261825D-02  0.258618D-02  0.642085D-02  0.347609D+00
      6  0.150302D-01  0.362746D-02 -0.164858D-01  0.233180D-02  0.222616D-02
      7  0.150302D-01 -0.164858D-01  0.362745D-02  0.222615D-02  0.233180D-02
      8 -0.300605D-01  0.128583D-01  0.128583D-01 -0.455795D-02 -0.455796D-02
      9  0.150302D-01  0.233180D-02  0.222616D-02  0.362746D-02 -0.164858D-01
     10  0.150302D-01  0.222616D-02  0.233180D-02 -0.164858D-01  0.362744D-02
     11 -0.300605D-01 -0.455796D-02 -0.455796D-02  0.128583D-01  0.128583D-01
     12  0.735500D-03  0.155338D-02 -0.161079D-02  0.155337D-02 -0.161079D-02
     13  0.735507D-03 -0.116642D-02  0.110901D-02  0.110901D-02 -0.116642D-02
     14  0.735486D-03  0.110900D-02 -0.116643D-02 -0.116642D-02  0.110900D-02
     15  0.735492D-03 -0.161080D-02  0.155337D-02 -0.161079D-02  0.155337D-02
                6             7             8             9            10
      6  0.678054D-01
      7 -0.328359D-01  0.678054D-01
      8 -0.349696D-01 -0.349696D-01  0.699391D-01
      9  0.201132D-02  0.118979D-02 -0.320111D-02  0.678054D-01
     10  0.118979D-02  0.201131D-02 -0.320110D-02 -0.328359D-01  0.678054D-01
     11 -0.320111D-02 -0.320110D-02  0.640221D-02 -0.349696D-01 -0.349696D-01
     12 -0.167712D-02  0.153135D-02  0.145770D-03 -0.167712D-02  0.153135D-02
     13  0.121215D-02 -0.135792D-02  0.145769D-03 -0.135792D-02  0.121215D-02
     14 -0.135792D-02  0.121216D-02  0.145766D-03  0.121215D-02 -0.135793D-02
     15  0.153134D-02 -0.167711D-02  0.145765D-03  0.153136D-02 -0.167713D-02
               11            12            13            14            15
     11  0.699391D-01
     12  0.145767D-03  0.200712D-01
     13  0.145768D-03  0.629181D-02  0.204361D-01
     14  0.145775D-03  0.629181D-02 -0.785247D-02  0.204361D-01
     15  0.145776D-03 -0.748756D-02  0.629181D-02  0.629182D-02  0.200712D-01
 Leave Link  716 at Fri Feb 24 12:10:28 2006, MaxMem=    6291456 cpu:       0.0
 (Enter /tftpboot/usr/local/g03/l103.exe)

 GradGradGradGradGradGradGradGradGradGradGradGradGradGradGradGradGradGrad
 Berny optimization.
 Internal  Forces:  Max     0.000000165 RMS     0.000000070
 Search for a local minimum.
 Step number   1 out of a maximum of   2
 All quantities printed in internal units (Hartrees-Bohrs-Radians)
 Second derivative matrix not updated -- analytic derivatives used.
 The second derivative matrix:
                          R1        R2        R3        R4        R5
           R1           0.50981
           R2           0.01547   0.34761
           R3           0.01547   0.00642   0.34761
           R4           0.01547   0.00259   0.00262   0.34761
           R5           0.01547   0.00262   0.00259   0.00642   0.34761
           A1           0.01503   0.00363  -0.01649   0.00233   0.00223
           A2           0.01503  -0.01649   0.00363   0.00223   0.00233
           A3          -0.03006   0.01286   0.01286  -0.00456  -0.00456
           A4           0.01503   0.00233   0.00223   0.00363  -0.01649
           A5           0.01503   0.00223   0.00233  -0.01649   0.00363
           A6          -0.03006  -0.00456  -0.00456   0.01286   0.01286
           D1           0.00074   0.00155  -0.00161   0.00155  -0.00161
           D2           0.00074  -0.00117   0.00111   0.00111  -0.00117
           D3           0.00074   0.00111  -0.00117  -0.00117   0.00111
           D4           0.00074  -0.00161   0.00155  -0.00161   0.00155
                          A1        A2        A3        A4        A5
           A1           0.06781
           A2          -0.03284   0.06781
           A3          -0.03497  -0.03497   0.06994
           A4           0.00201   0.00119  -0.00320   0.06781
           A5           0.00119   0.00201  -0.00320  -0.03284   0.06781
           A6          -0.00320  -0.00320   0.00640  -0.03497  -0.03497
           D1          -0.00168   0.00153   0.00015  -0.00168   0.00153
           D2           0.00121  -0.00136   0.00015  -0.00136   0.00121
           D3          -0.00136   0.00121   0.00015   0.00121  -0.00136
           D4           0.00153  -0.00168   0.00015   0.00153  -0.00168
                          A6        D1        D2        D3        D4
           A6           0.06994
           D1           0.00015   0.02007
           D2           0.00015   0.00629   0.02044
           D3           0.00015   0.00629  -0.00785   0.02044
           D4           0.00015  -0.00749   0.00629   0.00629   0.02007
     Eigenvalues ---    0.02516   0.02718   0.02805   0.09177   0.09839
     Eigenvalues ---    0.10010   0.10645   0.34289   0.34290   0.35237
     Eigenvalues ---    0.35542   0.521701000.000001000.000001000.00000
 Angle between quadratic step and forces=  90.00 degrees.
 Linear search not attempted -- first point.
 Iteration  1 RMS(Cart)=  0.00000078 RMS(Int)=  0.00000000
 Variable       Old X    -DE/DX   Delta X   Delta X   Delta X     New X
                                 (Linear)    (Quad)   (Total)
    R1        2.59478   0.00000   0.00000   0.00000   0.00000   2.59478
    R2        2.06061   0.00000   0.00000   0.00000   0.00000   2.06061
    R3        2.06061   0.00000   0.00000   0.00000   0.00000   2.06061
    R4        2.06061   0.00000   0.00000   0.00000   0.00000   2.06061
    R5        2.06061   0.00000   0.00000   0.00000   0.00000   2.06061
    A1        2.15623   0.00000   0.00000   0.00000   0.00000   2.15623
    A2        2.15623   0.00000   0.00000   0.00000   0.00000   2.15623
    A3        1.97073   0.00000   0.00000   0.00000   0.00000   1.97073
    A4        2.15623   0.00000   0.00000   0.00000   0.00000   2.15623
    A5        2.15623   0.00000   0.00000   0.00000   0.00000   2.15623
    A6        1.97073   0.00000   0.00000   0.00000   0.00000   1.97073
    D1        1.54440   0.00000   0.00000   0.00000   0.00000   1.54440
    D2       -1.59719   0.00000   0.00000   0.00000   0.00000  -1.59719
    D3       -1.59719   0.00000   0.00000   0.00000   0.00000  -1.59719
    D4        1.54440   0.00000   0.00000   0.00000   0.00000   1.54440
         Item               Value     Threshold  Converged?
 Maximum Force            0.000000     0.000015     YES
 RMS     Force            0.000000     0.000010     YES
 Maximum Displacement     0.000001     0.000060     YES
 RMS     Displacement     0.000001     0.000040     YES
 Predicted change in Energy=-3.391676D-13
 Optimization completed.
    -- Stationary point found.
                           ----------------------------
                           !   Optimized Parameters   !
                           ! (Angstroms and Degrees)  !
 --------------------------                            --------------------------
 ! Name  Definition              Value          Derivative Info.                !
 --------------------------------------------------------------------------------
 ! R1    R(1,2)                  1.3731         -DE/DX =    0.0                 !
 ! R2    R(1,5)                  1.0904         -DE/DX =    0.0                 !
 ! R3    R(1,6)                  1.0904         -DE/DX =    0.0                 !
 ! R4    R(2,3)                  1.0904         -DE/DX =    0.0                 !
 ! R5    R(2,4)                  1.0904         -DE/DX =    0.0                 !
 ! A1    A(2,1,5)              123.5428         -DE/DX =    0.0                 !
 ! A2    A(2,1,6)              123.5428         -DE/DX =    0.0                 !
 ! A3    A(5,1,6)              112.9145         -DE/DX =    0.0                 !
 ! A4    A(1,2,3)              123.5428         -DE/DX =    0.0                 !
 ! A5    A(1,2,4)              123.5428         -DE/DX =    0.0                 !
 ! A6    A(3,2,4)              112.9145         -DE/DX =    0.0                 !
 ! D1    D(5,1,2,3)             88.4878         -DE/DX =    0.0                 !
 ! D2    D(5,1,2,4)            -91.5122         -DE/DX =    0.0                 !
 ! D3    D(6,1,2,3)            -91.5122         -DE/DX =    0.0                 !
 ! D4    D(6,1,2,4)             88.4878         -DE/DX =    0.0                 !
 --------------------------------------------------------------------------------
 GradGradGradGradGradGradGradGradGradGradGradGradGradGradGradGradGradGrad

 Leave Link  103 at Fri Feb 24 12:10:28 2006, MaxMem=    6291456 cpu:       0.0
 (Enter /tftpboot/usr/local/g03/l9999.exe)
 1\1\GINC-ALPHA\Freq\RCIS-FC\6-311++G(d,p)\C2H4\LELLO\24-Feb-2006\0\\#P
  GEOM=ALLCHECK GUESS=READ SCRF=CHECK GENCHK RCIS(FC,READ)/6-311++G(D,P
 ) FREQ\\Etilene S1\\0,1\C,0.,0.,-0.6865503554\C,0.,0.,0.6865503554\H,-
 0.6341121807,0.6510733613,1.2890762337\H,0.6341121807,-0.6510733613,1.
 2890762337\H,0.6341121807,0.6510733613,-1.2890762337\H,-0.6341121807,-
 0.6510733613,-1.2890762337\\Version=x86-Linux-G03RevB.01\State=1-A\HF=
 -77.8924473\MP2=-78.1983275\RMSD=2.424e-09\RMSF=1.190e-07\Dipole=0.,0.
 ,0.\DipoleDeriv=-0.2453883,0.2813645,-0.0000007,0.2829392,-0.2740508,-
 0.0000005,0.,0.,-0.8571169,-0.2453883,-0.2813645,-0.0000002,-0.2829392
 ,-0.2740508,0.,0.,0.,-0.8571166,0.1226941,0.1055847,-0.0042832,0.10936
 81,0.1370254,0.0043981,0.0673624,-0.0623254,0.4285582,0.1226942,0.1055
 847,0.004284,0.1093682,0.1370254,-0.0043981,-0.0673624,0.0623254,0.428
 5586,0.1226942,-0.1055847,-0.0042835,-0.1093681,0.1370254,-0.0043978,0
 .0673624,0.0623254,0.4285581,0.1226941,-0.1055847,0.0042837,-0.1093681
 ,0.1370254,0.0043983,-0.0673624,-0.0623254,0.4285586\Polar=26.7656921,
 0.,27.0278688,0.0000004,0.0000011,100.8683992\PG=D02 [C2(C1.C1),X(H4)]
 \NImag=0\\0.31985996,0.20808360,0.32781226,0.,-0.00000004,0.68734095,-
 0.07712904,-0.00107278,0.,0.31985996,0.00107279,-0.07630231,0.00000003
 ,-0.20808362,0.32781225,0.,0.,-0.42748937,0.,-0.00000002,0.68734093,0.
 01117254,0.00242365,0.00005336,-0.13253799,0.10592911,0.08350887,0.136
 37320,0.00167535,0.01099656,0.00152100,0.10625354,-0.13675153,-0.08731
 830,-0.12123467,0.14216221,0.01365407,-0.01378976,-0.01437224,0.090891
 60,-0.09325244,-0.11555355,-0.09472445,0.09733505,0.13598423,0.0111725
 2,0.00242370,-0.00005334,-0.13253800,0.10592908,-0.08350886,-0.0115990
 2,0.01309384,-0.01004146,0.13637321,0.00167534,0.01099661,-0.00152101,
 0.10625354,-0.13675157,0.08731832,0.01309384,-0.01274066,0.01003880,-0
 .12123467,0.14216222,-0.01365407,0.01378979,-0.01437224,-0.09089159,0.
 09325243,-0.11555354,0.01004146,-0.01003881,0.00635618,0.09472444,-0.0
 9733505,0.13598422,-0.13253799,-0.10592911,0.08350889,0.01117253,-0.00
 242366,0.00005333,-0.00601995,-0.00426383,0.00067051,0.00261122,0.0044
 7575,0.00045026,0.13637322,-0.10625355,-0.13675151,0.08731829,-0.00167
 535,0.01099654,-0.00152098,0.00426383,0.00217073,0.00058364,-0.0044757
 7,-0.00583730,0.00091529,0.12123466,0.14216222,0.09089161,0.09325243,-
 0.11555354,0.01365407,0.01378977,-0.01437224,0.00067051,-0.00058364,-0
 .00629323,-0.00045026,0.00091530,-0.00612139,-0.09472445,-0.09733505,0
 .13598423,-0.13253800,-0.10592906,-0.08350889,0.01117253,-0.00242371,-
 0.00005334,0.00261122,0.00447576,-0.00045026,-0.00601994,-0.00426381,-
 0.00067050,-0.01159903,-0.01309382,-0.01004147,0.13637322,-0.10625352,
 -0.13675159,-0.08731827,-0.00167535,0.01099662,0.00152098,-0.00447576,
 -0.00583730,-0.00091529,0.00426382,0.00217071,-0.00058365,-0.01309382,
 -0.01274067,-0.01003881,0.12123463,0.14216224,-0.09089160,-0.09325243,
 -0.11555356,-0.01365405,-0.01378977,-0.01437223,0.00045026,-0.00091529
 ,-0.00612139,-0.00067052,0.00058365,-0.00629323,0.01004146,0.01003881,
 0.00635618,0.09472446,0.09733504,0.13598423\\0.,0.,0.00000033,0.,0.,-0
 .00000033,0.00000005,0.,0.00000008,-0.00000005,0.,0.00000008,-0.000000
 05,0.,-0.00000008,0.00000005,0.,-0.00000008\\\@


 NO SCIENCE HAS EVER MADE MORE RAPID PROGRESS IN A
 SHORTER TIME THAN CHEMISTRY.
   -- MARTIN HEINRICH KLOPROTH, 1791
 (FIRST PROFESSOR OF CHEMISTRY AT THE UNIVERSITY OF BERLIN)
 Job cpu time:  0 days  0 hours  0 minutes 41.3 seconds.
 File lengths (MBytes):  RWF=     29 Int=      0 D2E=      0 Chk=     11 Scr=      1
 Normal termination of Gaussian 03 at Fri Feb 24 12:10:28 2006.
