 Entering Gaussian System, Link 0=g03
 Initial command:
 /tftpboot/usr/local/g03/l1.exe /home/lello/jobs/c2h4/Gau-17682.inp -scrdir=/home/lello/jobs/c2h4/
 Entering Link 1 = /tftpboot/usr/local/g03/l1.exe PID=     17683.
  
 Copyright (c) 1988,1990,1992,1993,1995,1998,2003, Gaussian, Inc.
                  All Rights Reserved.
  
 This is the Gaussian(R) 03 program.  It is based on the
 the Gaussian(R) 98 system (copyright 1998, Gaussian, Inc.),
 the Gaussian(R) 94 system (copyright 1995, Gaussian, Inc.),
 the Gaussian 92(TM) system (copyright 1992, Gaussian, Inc.),
 the Gaussian 90(TM) system (copyright 1990, Gaussian, Inc.),
 the Gaussian 88(TM) system (copyright 1988, Gaussian, Inc.),
 the Gaussian 86(TM) system (copyright 1986, Carnegie Mellon
 University), and the Gaussian 82(TM) system (copyright 1983,
 Carnegie Mellon University). Gaussian is a federally registered
 trademark of Gaussian, Inc.
  
 This software contains proprietary and confidential information,
 including trade secrets, belonging to Gaussian, Inc.
  
 This software is provided under written license and may be
 used, copied, transmitted, or stored only in accord with that
 written license.
  
 The following legend is applicable only to US Government
 contracts under DFARS:
  
                    RESTRICTED RIGHTS LEGEND
  
 Use, duplication or disclosure by the US Government is subject
 to restrictions as set forth in subparagraph (c)(1)(ii) of the
 Rights in Technical Data and Computer Software clause at DFARS
 252.227-7013.
  
 Gaussian, Inc.
 Carnegie Office Park, Building 6, Pittsburgh, PA 15106 USA
  
 The following legend is applicable only to US Government
 contracts under FAR:
  
                    RESTRICTED RIGHTS LEGEND
  
 Use, reproduction and disclosure by the US Government is subject
 to restrictions as set forth in subparagraph (c) of the
 Commercial Computer Software - Restricted Rights clause at FAR
 52.227-19.
  
 Gaussian, Inc.
 Carnegie Office Park, Building 6, Pittsburgh, PA 15106 USA
  
  
 ---------------------------------------------------------------
 Warning -- This program may not be used in any manner that
 competes with the business of Gaussian, Inc. or will provide
 assistance to any competitor of Gaussian, Inc.  The licensee
 of this program is prohibited from giving any competitor of
 Gaussian, Inc. access to this program.  By using this program,
 the user acknowledges that Gaussian, Inc. is engaged in the
 business of creating and licensing software in the field of
 computational chemistry and represents and warrants to the
 licensee that it is not a competitor of Gaussian, Inc. and that
 it will not use this program in any manner prohibited above.
 ---------------------------------------------------------------
  

 Cite this work as:
 Gaussian 03, Revision B.01,
 M. J. Frisch, G. W. Trucks, H. B. Schlegel, G. E. Scuseria, 
 M. A. Robb, J. R. Cheeseman, J. A. Montgomery, Jr., T. Vreven, 
 K. N. Kudin, J. C. Burant, J. M. Millam, S. S. Iyengar, J. Tomasi, 
 V. Barone, B. Mennucci, M. Cossi, G. Scalmani, N. Rega, 
 G. A. Petersson, H. Nakatsuji, M. Hada, M. Ehara, K. Toyota, 
 R. Fukuda, J. Hasegawa, M. Ishida, T. Nakajima, Y. Honda, O. Kitao, 
 H. Nakai, M. Klene, X. Li, J. E. Knox, H. P. Hratchian, J. B. Cross, 
 C. Adamo, J. Jaramillo, R. Gomperts, R. E. Stratmann, O. Yazyev, 
 A. J. Austin, R. Cammi, C. Pomelli, J. W. Ochterski, P. Y. Ayala, 
 K. Morokuma, G. A. Voth, P. Salvador, J. J. Dannenberg, 
 V. G. Zakrzewski, S. Dapprich, A. D. Daniels, M. C. Strain, 
 O. Farkas, D. K. Malick, A. D. Rabuck, K. Raghavachari, 
 J. B. Foresman, J. V. Ortiz, Q. Cui, A. G. Baboul, S. Clifford, 
 J. Cioslowski, B. B. Stefanov, G. Liu, A. Liashenko, P. Piskorz, 
 I. Komaromi, R. L. Martin, D. J. Fox, T. Keith, M. A. Al-Laham, 
 C. Y. Peng, A. Nanayakkara, M. Challacombe, P. M. W. Gill, 
 B. Johnson, W. Chen, M. W. Wong, C. Gonzalez, and J. A. Pople, 
 Gaussian, Inc., Pittsburgh PA, 2003.
 
 *********************************************
 Gaussian 03:  x86-Linux-G03RevB.01 3-Mar-2003
                  22-Mar-2006 
 *********************************************
 %chk=et_cas
 ----------------------------------------
 #p HF/6-311++g** opt(Tight,maxcycle=100)
 ----------------------------------------
 1/6=100,7=10,18=20,38=1/1,3;
 2/9=110,17=6,18=5,40=1/2;
 3/5=4,6=6,7=1111,11=9,16=1,25=1,30=1/1,2,3;
 4//1;
 5/5=2,38=5/2;
 6/7=2,8=2,9=2,10=2,28=1/1;
 7//1,2,3,16;
 1/6=100,18=20/3(1);
 99//99;
 2/9=110/2;
 3/5=4,6=6,7=1111,11=9,16=1,25=1,30=1/1,2,3;
 4/5=5,16=3/1;
 5/5=2,38=5/2;
 7//1,2,3,16;
 1/6=100,18=20/3(-5);
 2/9=110/2;
 6/7=2,8=2,9=2,10=2,19=2,28=1/1;
 99/9=1/99;
 Leave Link    1 at Wed Mar 22 13:02:27 2006, MaxMem=          0 cpu:       0.1
 (Enter /tftpboot/usr/local/g03/l101.exe)
 ----------
 Etilene S0
 ----------
 Symbolic Z-matrix:
 Charge =  0 Multiplicity = 1
 c
 c                    1    cc2
 h                    2    hc3      1    hcc3
 h                    2    hc4      1    hcc4     3    dih4     0
 h                    1    hc5      2    hcc5     3    dih5     0
 h                    1    hc6      2    hcc6     4    dih6     0
       Variables:
  cc2                   1.335                    
  hc3                   1.089                    
  hcc3                120.                       
  hc4                   1.089                    
  hcc4                120.                       
  dih4                180.                       
  hc5                   1.089                    
  hcc5                120.                       
  dih5                180.                       
  hc6                   1.089                    
  hcc6                120.                       
  dih6                180.                       
 
                    Isotopes and Nuclear Properties:

  Atom         1           2           3           4           5           6
 IAtWgt=          12          12           1           1           1           1
 AtmWgt=  12.0000000  12.0000000   1.0078250   1.0078250   1.0078250   1.0078250
 IAtSpn=           0           0           1           1           1           1
 AtZEff=   0.0000000   0.0000000   0.0000000   0.0000000   0.0000000   0.0000000
 AtQMom=   0.0000000   0.0000000   0.0000000   0.0000000   0.0000000   0.0000000
 AtGFac=   0.0000000   0.0000000   2.7928460   2.7928460   2.7928460   2.7928460
 Leave Link  101 at Wed Mar 22 13:02:27 2006, MaxMem=    6291456 cpu:       0.1
 (Enter /tftpboot/usr/local/g03/l103.exe)

 GradGradGradGradGradGradGradGradGradGradGradGradGradGradGradGradGradGrad
 Berny optimization.
 Initialization pass.
                           ----------------------------
                           !    Initial Parameters    !
                           ! (Angstroms and Degrees)  !
 --------------------------                            --------------------------
 ! Name  Definition              Value          Derivative Info.                !
 --------------------------------------------------------------------------------
 ! R1    R(1,2)                  1.335          estimate D2E/DX2                !
 ! R2    R(1,5)                  1.089          estimate D2E/DX2                !
 ! R3    R(1,6)                  1.089          estimate D2E/DX2                !
 ! R4    R(2,3)                  1.089          estimate D2E/DX2                !
 ! R5    R(2,4)                  1.089          estimate D2E/DX2                !
 ! A1    A(2,1,5)              120.0            estimate D2E/DX2                !
 ! A2    A(2,1,6)              120.0            estimate D2E/DX2                !
 ! A3    A(5,1,6)              120.0            estimate D2E/DX2                !
 ! A4    A(1,2,3)              120.0            estimate D2E/DX2                !
 ! A5    A(1,2,4)              120.0            estimate D2E/DX2                !
 ! A6    A(3,2,4)              120.0            estimate D2E/DX2                !
 ! D1    D(5,1,2,3)            180.0            estimate D2E/DX2                !
 ! D2    D(5,1,2,4)              0.0            estimate D2E/DX2                !
 ! D3    D(6,1,2,3)              0.0            estimate D2E/DX2                !
 ! D4    D(6,1,2,4)            180.0            estimate D2E/DX2                !
 --------------------------------------------------------------------------------
 Trust Radius=3.00D-01 FncErr=1.00D-07 GrdErr=1.00D-07
 Number of steps in this run= 100 maximum allowed number of steps= 100.
 GradGradGradGradGradGradGradGradGradGradGradGradGradGradGradGradGradGrad

 Leave Link  103 at Wed Mar 22 13:02:27 2006, MaxMem=    6291456 cpu:       0.0
 (Enter /tftpboot/usr/local/g03/l202.exe)
                          Input orientation:                          
 ---------------------------------------------------------------------
 Center     Atomic     Atomic              Coordinates (Angstroms)
 Number     Number      Type              X           Y           Z
 ---------------------------------------------------------------------
    1          6             0        0.000000    0.000000    0.000000
    2          6             0        0.000000    0.000000    1.335000
    3          1             0        0.943102    0.000000    1.879500
    4          1             0       -0.943102    0.000000    1.879500
    5          1             0       -0.943102    0.000000   -0.544500
    6          1             0        0.943102    0.000000   -0.544500
 ---------------------------------------------------------------------
                    Distance matrix (angstroms):
                    1          2          3          4          5
     1  C    0.000000
     2  C    1.335000   0.000000
     3  H    2.102846   1.089000   0.000000
     4  H    2.102846   1.089000   1.886203   0.000000
     5  H    1.089000   2.102846   3.071407   2.424000   0.000000
     6  H    1.089000   2.102846   2.424000   3.071407   1.886203
                    6
     6  H    0.000000
 Stoichiometry    C2H4
 Framework group  D2H[C2"(C.C),SG(H4)]
 Deg. of freedom     3
 Full point group                 D2H     NOp   8
 Largest Abelian subgroup         D2H     NOp   8
 Largest concise Abelian subgroup D2      NOp   4
                         Standard orientation:                         
 ---------------------------------------------------------------------
 Center     Atomic     Atomic              Coordinates (Angstroms)
 Number     Number      Type              X           Y           Z
 ---------------------------------------------------------------------
    1          6             0        0.000000    0.000000    0.667500
    2          6             0        0.000000    0.000000   -0.667500
    3          1             0        0.000000    0.943102   -1.212000
    4          1             0        0.000000   -0.943102   -1.212000
    5          1             0        0.000000   -0.943102    1.212000
    6          1             0        0.000000    0.943102    1.212000
 ---------------------------------------------------------------------
 Rotational constants (GHZ):    140.9467412     30.4168424     25.0178873
 Leave Link  202 at Wed Mar 22 13:02:27 2006, MaxMem=    6291456 cpu:       0.1
 (Enter /tftpboot/usr/local/g03/l301.exe)
 Standard basis: 6-311++G(d,p) (5D, 7F)
 There are    17 symmetry adapted basis functions of AG  symmetry.
 There are     2 symmetry adapted basis functions of B1G symmetry.
 There are     6 symmetry adapted basis functions of B2G symmetry.
 There are    11 symmetry adapted basis functions of B3G symmetry.
 There are     2 symmetry adapted basis functions of AU  symmetry.
 There are    17 symmetry adapted basis functions of B1U symmetry.
 There are    11 symmetry adapted basis functions of B2U symmetry.
 There are     6 symmetry adapted basis functions of B3U symmetry.
 Integral buffers will be    262144 words long.
 Raffenetti 1 integral format.
 Two-electron integral symmetry is turned on.
    72 basis functions,   108 primitive gaussians,    74 cartesian basis functions
     8 alpha electrons        8 beta electrons
       nuclear repulsion energy        33.3141103638 Hartrees.
 IExCor=   0 DFT=F Ex=HF Corr=None ExCW=0 ScaHFX=  1.000000
 ScaDFX=  1.000000  1.000000  1.000000  1.000000
 IRadAn=      0 IRanWt=     -1 IRanGd=            0 ICorTp=0
 NAtoms=    6 NActive=    6 NUniq=    2 SFac= 5.66D+00 NAtFMM=   60 Big=F
 Leave Link  301 at Wed Mar 22 13:02:28 2006, MaxMem=    6291456 cpu:       0.0
 (Enter /tftpboot/usr/local/g03/l302.exe)
 NPDir=0 NMtPBC=     1 NCelOv=     1 NCel=       1 NClECP=     1 NCelD=      1
         NCelK=      1 NCelE2=     1 NClLst=     1 CellRange=     0.0.
 One-electron integrals computed using PRISM.
 One-electron integral symmetry used in STVInt
 NBasis=    72 RedAO= T  NBF=    17     2     6    11     2    17    11     6
 NBsUse=    72 1.00D-06 NBFU=    17     2     6    11     2    17    11     6
 Leave Link  302 at Wed Mar 22 13:02:28 2006, MaxMem=    6291456 cpu:       0.2
 (Enter /tftpboot/usr/local/g03/l303.exe)
 DipDrv:  MaxL=1.
 Leave Link  303 at Wed Mar 22 13:02:28 2006, MaxMem=    6291456 cpu:       0.0
 (Enter /tftpboot/usr/local/g03/l401.exe)
 Harris functional with IExCor=  205 diagonalized for initial guess.
 ExpMin= 3.60D-02 ExpMax= 4.56D+03 ExpMxC= 6.82D+02 IAcc=3 IRadAn=         5 AccDes= 0.00D+00
 HarFok:  IExCor= 205 AccDes= 0.00D+00 IRadAn=         5 IDoV=1
 ScaDFX=  1.000000  1.000000  1.000000  1.000000
 Harris En= -78.2668007606855    
 Initial guess orbital symmetries:
       Occupied  (AG) (B1U) (AG) (B1U) (B2U) (AG) (B3G) (B3U)
       Virtual   (B2G) (AG) (B2U) (B1U) (B3U) (B3G) (AG) (AG) (B2U)
                 (B2G) (B1U) (AG) (B1U) (B2U) (B3G) (B1U) (B1U)
                 (B3G) (AG) (B2U) (AG) (B3U) (B1U) (B2G) (B2U)
                 (B1U) (B3G) (AG) (B3G) (B1U) (B1G) (B3U) (AU)
                 (AG) (B3G) (B2U) (AG) (B1U) (B2U) (B2G) (B3U)
                 (B1G) (B1U) (B2G) (B3G) (AG) (AU) (B1U) (AG) (B2U)
                 (B2U) (B3G) (B3U) (AG) (B1U) (B1U) (B2G) (B3G)
                 (AG) (B2U) (B3G) (B1U) (AG) (B1U)
 The electronic state of the initial guess is 1-AG.
 Leave Link  401 at Wed Mar 22 13:02:29 2006, MaxMem=    6291456 cpu:       0.4
 (Enter /tftpboot/usr/local/g03/l502.exe)
 Closed shell SCF:
 Requested convergence on RMS density matrix=1.00D-08 within 128 cycles.
 Requested convergence on MAX density matrix=1.00D-06.
 Requested convergence on             energy=1.00D-06.
 No special actions if energy rises.
 Using DIIS extrapolation, IDIIS=  1040.
 Integral symmetry usage will be decided dynamically.
 Keep R1 integrals in memory in canonical form, NReq=     4525770.
 IEnd=     35931 IEndB=     35931 NGot=   6291456 MDV=   2426002
 LenX=   2426002
 Symmetry not used in FoFDir.
 MinBra= 0 MaxBra= 2 Meth= 1.
 IRaf=       0 NMat=   1 IRICut=       1 DoRegI=T DoRafI=F ISym2E= 0 JSym2E=0.

 Cycle   1  Pass 1  IDiag  1:
 E= -77.8851073560612    
 DIIS: error= 7.70D-02 at cycle   1 NSaved=   1.
 NSaved= 1 IEnMin= 1 EnMin= -77.8851073560612     IErMin= 1 ErrMin= 7.70D-02
 ErrMax= 7.70D-02 EMaxC= 1.00D-01 BMatC= 2.24D-01 BMatP= 2.24D-01
 IDIUse=3 WtCom= 2.30D-01 WtEn= 7.70D-01
 Coeff-Com:  0.100D+01
 Coeff-En:   0.100D+01
 Coeff:      0.100D+01
 Gap=     0.349 Goal=   None    Shift=    0.000
 GapD=    0.349 DampG=1.000 DampE=0.500 DampFc=0.5000 IDamp=-1.
 Damping current iteration by 5.00D-01
 RMSDP=4.31D-03 MaxDP=1.02D-01              OVMax= 1.83D-01

 Cycle   2  Pass 1  IDiag  1:
 E= -77.9771394311882     Delta-E=       -0.092032075127 Rises=F Damp=T
 DIIS: error= 3.87D-02 at cycle   2 NSaved=   2.
 NSaved= 2 IEnMin= 2 EnMin= -77.9771394311882     IErMin= 2 ErrMin= 3.87D-02
 ErrMax= 3.87D-02 EMaxC= 1.00D-01 BMatC= 3.82D-02 BMatP= 2.24D-01
 IDIUse=3 WtCom= 6.13D-01 WtEn= 3.87D-01
 Coeff-Com: -0.560D+00 0.156D+01
 Coeff-En:   0.000D+00 0.100D+01
 Coeff:     -0.343D+00 0.134D+01
 Gap=     0.417 Goal=   None    Shift=    0.000
 RMSDP=1.16D-03 MaxDP=2.20D-02 DE=-9.20D-02 OVMax= 5.03D-02

 Cycle   3  Pass 1  IDiag  1:
 E= -78.0545446511020     Delta-E=       -0.077405219914 Rises=F Damp=F
 DIIS: error= 2.97D-03 at cycle   3 NSaved=   3.
 NSaved= 3 IEnMin= 3 EnMin= -78.0545446511020     IErMin= 3 ErrMin= 2.97D-03
 ErrMax= 2.97D-03 EMaxC= 1.00D-01 BMatC= 2.15D-04 BMatP= 3.82D-02
 IDIUse=3 WtCom= 9.70D-01 WtEn= 2.97D-02
 Coeff-Com:  0.727D-01-0.191D+00 0.112D+01
 Coeff-En:   0.000D+00 0.000D+00 0.100D+01
 Coeff:      0.705D-01-0.186D+00 0.112D+01
 Gap=     0.426 Goal=   None    Shift=    0.000
 RMSDP=1.79D-04 MaxDP=2.84D-03 DE=-7.74D-02 OVMax= 5.20D-03

 Cycle   4  Pass 1  IDiag  1:
 E= -78.0547623912900     Delta-E=       -0.000217740188 Rises=F Damp=F
 DIIS: error= 6.56D-04 at cycle   4 NSaved=   4.
 NSaved= 4 IEnMin= 4 EnMin= -78.0547623912900     IErMin= 4 ErrMin= 6.56D-04
 ErrMax= 6.56D-04 EMaxC= 1.00D-01 BMatC= 5.35D-06 BMatP= 2.15D-04
 IDIUse=3 WtCom= 9.93D-01 WtEn= 6.56D-03
 Coeff-Com: -0.116D-01 0.300D-01-0.224D+00 0.121D+01
 Coeff-En:   0.000D+00 0.000D+00 0.000D+00 0.100D+01
 Coeff:     -0.116D-01 0.298D-01-0.222D+00 0.120D+01
 Gap=     0.426 Goal=   None    Shift=    0.000
 RMSDP=4.73D-05 MaxDP=4.43D-04 DE=-2.18D-04 OVMax= 1.49D-03

 Cycle   5  Pass 1  IDiag  1:
 E= -78.0547737919635     Delta-E=       -0.000011400673 Rises=F Damp=F
 DIIS: error= 1.10D-04 at cycle   5 NSaved=   5.
 NSaved= 5 IEnMin= 5 EnMin= -78.0547737919635     IErMin= 5 ErrMin= 1.10D-04
 ErrMax= 1.10D-04 EMaxC= 1.00D-01 BMatC= 1.78D-07 BMatP= 5.35D-06
 IDIUse=3 WtCom= 9.99D-01 WtEn= 1.10D-03
 Coeff-Com: -0.715D-03 0.194D-02-0.126D-01-0.143D+00 0.115D+01
 Coeff-En:   0.000D+00 0.000D+00 0.000D+00 0.000D+00 0.100D+01
 Coeff:     -0.714D-03 0.194D-02-0.126D-01-0.143D+00 0.115D+01
 Gap=     0.426 Goal=   None    Shift=    0.000
 RMSDP=1.26D-05 MaxDP=1.26D-04 DE=-1.14D-05 OVMax= 3.39D-04

 Cycle   6  Pass 1  IDiag  1:
 E= -78.0547742249092     Delta-E=       -0.000000432946 Rises=F Damp=F
 DIIS: error= 1.06D-05 at cycle   6 NSaved=   6.
 NSaved= 6 IEnMin= 6 EnMin= -78.0547742249092     IErMin= 6 ErrMin= 1.06D-05
 ErrMax= 1.06D-05 EMaxC= 1.00D-01 BMatC= 2.74D-09 BMatP= 1.78D-07
 IDIUse=1 WtCom= 1.00D+00 WtEn= 0.00D+00
 Coeff-Com:  0.337D-03-0.843D-03 0.570D-02 0.776D-02-0.229D+00 0.122D+01
 Coeff:      0.337D-03-0.843D-03 0.570D-02 0.776D-02-0.229D+00 0.122D+01
 Gap=     0.426 Goal=   None    Shift=    0.000
 RMSDP=2.36D-06 MaxDP=3.31D-05 DE=-4.33D-07 OVMax= 4.46D-05

 Cycle   7  Pass 1  IDiag  1:
 E= -78.0547742317842     Delta-E=       -0.000000006875 Rises=F Damp=F
 DIIS: error= 1.85D-06 at cycle   7 NSaved=   7.
 NSaved= 7 IEnMin= 7 EnMin= -78.0547742317842     IErMin= 7 ErrMin= 1.85D-06
 ErrMax= 1.85D-06 EMaxC= 1.00D-01 BMatC= 5.34D-11 BMatP= 2.74D-09
 IDIUse=1 WtCom= 1.00D+00 WtEn= 0.00D+00
 Coeff-Com: -0.799D-04 0.189D-03-0.110D-02 0.178D-02 0.263D-01-0.258D+00
 Coeff-Com:  0.123D+01
 Coeff:     -0.799D-04 0.189D-03-0.110D-02 0.178D-02 0.263D-01-0.258D+00
 Coeff:      0.123D+01
 Gap=     0.426 Goal=   None    Shift=    0.000
 RMSDP=2.83D-07 MaxDP=3.45D-06 DE=-6.87D-09 OVMax= 4.89D-06

 Cycle   8  Pass 1  IDiag  1:
 E= -78.0547742319130     Delta-E=       -0.000000000129 Rises=F Damp=F
 DIIS: error= 3.09D-07 at cycle   8 NSaved=   8.
 NSaved= 8 IEnMin= 8 EnMin= -78.0547742319130     IErMin= 8 ErrMin= 3.09D-07
 ErrMax= 3.09D-07 EMaxC= 1.00D-01 BMatC= 1.23D-12 BMatP= 5.34D-11
 IDIUse=1 WtCom= 1.00D+00 WtEn= 0.00D+00
 Coeff-Com:  0.161D-04-0.381D-04 0.217D-03-0.510D-03-0.551D-02 0.651D-01
 Coeff-Com: -0.408D+00 0.135D+01
 Coeff:      0.161D-04-0.381D-04 0.217D-03-0.510D-03-0.551D-02 0.651D-01
 Coeff:     -0.408D+00 0.135D+01
 Gap=     0.426 Goal=   None    Shift=    0.000
 RMSDP=3.94D-08 MaxDP=4.35D-07 DE=-1.29D-10 OVMax= 1.46D-06

 Cycle   9  Pass 1  IDiag  1:
 E= -78.0547742319172     Delta-E=       -0.000000000004 Rises=F Damp=F
 DIIS: error= 6.09D-08 at cycle   9 NSaved=   9.
 NSaved= 9 IEnMin= 9 EnMin= -78.0547742319172     IErMin= 9 ErrMin= 6.09D-08
 ErrMax= 6.09D-08 EMaxC= 1.00D-01 BMatC= 2.80D-14 BMatP= 1.23D-12
 IDIUse=1 WtCom= 1.00D+00 WtEn= 0.00D+00
 Coeff-Com: -0.370D-05 0.882D-05-0.462D-04 0.111D-03 0.130D-02-0.150D-01
 Coeff-Com:  0.984D-01-0.384D+00 0.130D+01
 Coeff:     -0.370D-05 0.882D-05-0.462D-04 0.111D-03 0.130D-02-0.150D-01
 Coeff:      0.984D-01-0.384D+00 0.130D+01
 Gap=     0.426 Goal=   None    Shift=    0.000
 RMSDP=7.95D-09 MaxDP=1.11D-07 DE=-4.12D-12 OVMax= 2.85D-07

 SCF Done:  E(RHF) =  -78.0547742319     A.U. after    9 cycles
             Convg  =    0.7946D-08             -V/T =  2.0020
             S**2   =   0.0000
 KE= 7.789806117970D+01 PE=-2.478242159947D+02 EE= 5.855727021922D+01
 Leave Link  502 at Wed Mar 22 13:02:31 2006, MaxMem=    6291456 cpu:       1.6
 (Enter /tftpboot/usr/local/g03/l601.exe)
 Copying SCF densities to generalized density rwf, ISCF=0 IROHF=0.

 **********************************************************************

            Population analysis using the SCF density.

 **********************************************************************

 Orbital symmetries:
       Occupied  (AG) (B1U) (AG) (B1U) (B2U) (AG) (B3G) (B3U)
       Virtual   (AG) (B1U) (B2U) (B3G) (B2G) (B3U) (AG) (B1U)
                 (AG) (B2U) (B1U) (B2G) (B3G) (AG) (B2U) (B1U)
                 (B3G) (B1U) (AG) (B2U) (AG) (B1U) (B3U) (B2G)
                 (B2U) (B3G) (B1U) (AG) (B3G) (B1U) (B1G) (B3U)
                 (AU) (AG) (B3G) (B2U) (B1U) (B2G) (B2U) (AG) (B3U)
                 (B1G) (B1U) (B2G) (AG) (B3G) (AU) (B1U) (AG) (B2U)
                 (B2U) (B3G) (AG) (B1U) (B3U) (B1U) (B2G) (B3G)
                 (AG) (B2U) (B3G) (B1U) (AG) (B1U)
 The electronic state is 1-AG.
 Alpha  occ. eigenvalues --  -11.23438 -11.23269  -1.03552  -0.78756  -0.64834
 Alpha  occ. eigenvalues --   -0.58080  -0.51010  -0.37642
 Alpha virt. eigenvalues --    0.04953   0.06250   0.06317   0.08174   0.10632
 Alpha virt. eigenvalues --    0.12954   0.14010   0.17552   0.18493   0.20584
 Alpha virt. eigenvalues --    0.22315   0.22610   0.23131   0.26026   0.29128
 Alpha virt. eigenvalues --    0.31290   0.46375   0.51180   0.57414   0.59781
 Alpha virt. eigenvalues --    0.69788   0.70440   0.72434   0.80875   0.84015
 Alpha virt. eigenvalues --    0.93407   0.94944   0.95858   0.98566   1.09141
 Alpha virt. eigenvalues --    1.22563   1.34978   1.35358   1.63670   1.63994
 Alpha virt. eigenvalues --    1.68383   1.87162   1.88100   1.88198   1.88631
 Alpha virt. eigenvalues --    2.02549   2.08701   2.24623   2.38407   2.40785
 Alpha virt. eigenvalues --    2.41795   2.46617   2.54459   2.71287   2.78430
 Alpha virt. eigenvalues --    2.88346   2.88353   2.99918   3.00951   3.12071
 Alpha virt. eigenvalues --    3.17852   3.28880   3.50784   3.85338   4.05055
 Alpha virt. eigenvalues --    4.21886   4.53606  24.89893  25.41254
          Condensed to atoms (all electrons):
              1          2          3          4          5          6
     1  C    4.820111   0.644154  -0.040463  -0.040463   0.420980   0.420980
     2  C    0.644154   4.820111   0.420980   0.420980  -0.040463  -0.040463
     3  H   -0.040463   0.420980   0.526249  -0.020589   0.000500   0.000672
     4  H   -0.040463   0.420980  -0.020589   0.526249   0.000672   0.000500
     5  H    0.420980  -0.040463   0.000500   0.000672   0.526249  -0.020589
     6  H    0.420980  -0.040463   0.000672   0.000500  -0.020589   0.526249
 Mulliken atomic charges:
              1
     1  C   -0.225300
     2  C   -0.225300
     3  H    0.112650
     4  H    0.112650
     5  H    0.112650
     6  H    0.112650
 Sum of Mulliken charges=   0.00000
 Atomic charges with hydrogens summed into heavy atoms:
              1
     1  C    0.000000
     2  C    0.000000
     3  H    0.000000
     4  H    0.000000
     5  H    0.000000
     6  H    0.000000
 Sum of Mulliken charges=   0.00000
 Electronic spatial extent (au):  <R**2>=    83.2067
 Charge=     0.0000 electrons
 Dipole moment (field-independent basis, Debye):
    X=     0.0000    Y=     0.0000    Z=     0.0000  Tot=     0.0000
 Quadrupole moment (field-independent basis, Debye-Ang):
   XX=   -16.2289   YY=   -12.2154   ZZ=   -12.4791
   XY=     0.0000   XZ=     0.0000   YZ=     0.0000
 Traceless Quadrupole moment (field-independent basis, Debye-Ang):
   XX=    -2.5878   YY=     1.4257   ZZ=     1.1620
   XY=     0.0000   XZ=     0.0000   YZ=     0.0000
 Octapole moment (field-independent basis, Debye-Ang**2):
  XXX=     0.0000  YYY=     0.0000  ZZZ=     0.0000  XYY=     0.0000
  XXY=     0.0000  XXZ=     0.0000  XZZ=     0.0000  YZZ=     0.0000
  YYZ=     0.0000  XYZ=     0.0000
 Hexadecapole moment (field-independent basis, Debye-Ang**3):
 XXXX=   -21.3670 YYYY=   -27.0706 ZZZZ=   -68.7065 XXXY=     0.0000
 XXXZ=     0.0000 YYYX=     0.0000 YYYZ=     0.0000 ZZZX=     0.0000
 ZZZY=     0.0000 XXYY=    -8.9052 XXZZ=   -16.0109 YYZZ=   -13.0927
 XXYZ=     0.0000 YYXZ=     0.0000 ZZXY=     0.0000
 N-N= 3.331411036381D+01 E-N=-2.478242162472D+02  KE= 7.789806117970D+01
 Symmetry AG   KE= 3.754553506470D+01
 Symmetry B1G  KE= 8.413124527459D-34
 Symmetry B2G  KE=-1.122655974216D-25
 Symmetry B3G  KE= 2.084961555340D+00
 Symmetry AU   KE= 8.932063291994D-34
 Symmetry B1U  KE= 3.452988196675D+01
 Symmetry B2U  KE= 1.841297503014D+00
 Symmetry B3U  KE= 1.896385089891D+00
 No NMR shielding tensors so no spin-rotation constants.
 Leave Link  601 at Wed Mar 22 13:02:32 2006, MaxMem=    6291456 cpu:       0.3
 (Enter /tftpboot/usr/local/g03/l701.exe)
 Compute integral first derivatives.
 ... and contract with generalized density number  0.
 Leave Link  701 at Wed Mar 22 13:02:32 2006, MaxMem=    6291456 cpu:       0.2
 (Enter /tftpboot/usr/local/g03/l702.exe)
 L702 exits ... SP integral derivatives will be done elsewhere.
 Leave Link  702 at Wed Mar 22 13:02:32 2006, MaxMem=    6291456 cpu:       0.0
 (Enter /tftpboot/usr/local/g03/l703.exe)
 Compute integral first derivatives, UseDBF=F.
 Integral derivatives from FoFDir, PRISM(SPDF).
 Petite list used in FoFDir.
 MinBra= 0 MaxBra= 2 Meth= 1.
 IRaf=       0 NMat=   1 IRICut=       1 DoRegI=T DoRafI=F ISym2E= 1 JSym2E=1.
 Leave Link  703 at Wed Mar 22 13:02:33 2006, MaxMem=    6291456 cpu:       1.2
 (Enter /tftpboot/usr/local/g03/l716.exe)
 Dipole        =-5.98859671D-17-2.22044605D-16 0.00000000D+00
 ***** Axes restored to original set *****
 -------------------------------------------------------------------
 Center     Atomic                   Forces (Hartrees/Bohr)
 Number     Number              X              Y              Z
 -------------------------------------------------------------------
    1          6           0.000000000    0.000000000    0.017150931
    2          6           0.000000000    0.000000000   -0.017150931
    3          1          -0.010704213    0.000000000   -0.000424736
    4          1           0.010704213    0.000000000   -0.000424736
    5          1           0.010704213    0.000000000    0.000424736
    6          1          -0.010704213    0.000000000    0.000424736
 -------------------------------------------------------------------
 Cartesian Forces:  Max     0.017150931 RMS     0.007627986
 Leave Link  716 at Wed Mar 22 13:02:33 2006, MaxMem=    6291456 cpu:       0.0
 (Enter /tftpboot/usr/local/g03/l103.exe)

 GradGradGradGradGradGradGradGradGradGradGradGradGradGradGradGradGradGrad
 Berny optimization.
 Internal  Forces:  Max     0.018000402 RMS     0.007411545
 Search for a local minimum.
 Step number   1 out of a maximum of 100
 All quantities printed in internal units (Hartrees-Bohrs-Radians)
 Second derivative matrix not updated -- first step.
 The second derivative matrix:
                          R1        R2        R3        R4        R5
           R1           0.58340
           R2           0.00000   0.34928
           R3           0.00000   0.00000   0.34928
           R4           0.00000   0.00000   0.00000   0.34928
           R5           0.00000   0.00000   0.00000   0.00000   0.34928
           A1           0.00000   0.00000   0.00000   0.00000   0.00000
           A2           0.00000   0.00000   0.00000   0.00000   0.00000
           A3           0.00000   0.00000   0.00000   0.00000   0.00000
           A4           0.00000   0.00000   0.00000   0.00000   0.00000
           A5           0.00000   0.00000   0.00000   0.00000   0.00000
           A6           0.00000   0.00000   0.00000   0.00000   0.00000
           D1           0.00000   0.00000   0.00000   0.00000   0.00000
           D2           0.00000   0.00000   0.00000   0.00000   0.00000
           D3           0.00000   0.00000   0.00000   0.00000   0.00000
           D4           0.00000   0.00000   0.00000   0.00000   0.00000
                          A1        A2        A3        A4        A5
           A1           0.16000
           A2           0.00000   0.16000
           A3           0.00000   0.00000   0.16000
           A4           0.00000   0.00000   0.00000   0.16000
           A5           0.00000   0.00000   0.00000   0.00000   0.16000
           A6           0.00000   0.00000   0.00000   0.00000   0.00000
           D1           0.00000   0.00000   0.00000   0.00000   0.00000
           D2           0.00000   0.00000   0.00000   0.00000   0.00000
           D3           0.00000   0.00000   0.00000   0.00000   0.00000
           D4           0.00000   0.00000   0.00000   0.00000   0.00000
                          A6        D1        D2        D3        D4
           A6           0.16000
           D1           0.00000   0.02949
           D2           0.00000   0.00000   0.02949
           D3           0.00000   0.00000   0.00000   0.02949
           D4           0.00000   0.00000   0.00000   0.00000   0.02949
     Eigenvalues ---    0.02949   0.02949   0.02949   0.16000   0.16000
     Eigenvalues ---    0.16000   0.16000   0.34928   0.34928   0.34928
     Eigenvalues ---    0.34928   0.583401000.000001000.000001000.00000
 RFO step:  Lambda=-2.43925579D-03.
 Linear search not attempted -- first point.
 Iteration  1 RMS(Cart)=  0.02426652 RMS(Int)=  0.00033756
 Iteration  2 RMS(Cart)=  0.00037704 RMS(Int)=  0.00000006
 Iteration  3 RMS(Cart)=  0.00000006 RMS(Int)=  0.00000000
 Variable       Old X    -DE/DX   Delta X   Delta X   Delta X     New X
                                 (Linear)    (Quad)   (Total)
    R1        2.52278  -0.01800   0.00000  -0.03073  -0.03073   2.49206
    R2        2.05791  -0.00948   0.00000  -0.02696  -0.02696   2.03095
    R3        2.05791  -0.00948   0.00000  -0.02696  -0.02696   2.03095
    R4        2.05791  -0.00948   0.00000  -0.02696  -0.02696   2.03095
    R5        2.05791  -0.00948   0.00000  -0.02696  -0.02696   2.03095
    A1        2.09440   0.00342   0.00000   0.02105   0.02105   2.11544
    A2        2.09440   0.00342   0.00000   0.02105   0.02105   2.11544
    A3        2.09440  -0.00684   0.00000  -0.04210  -0.04210   2.05230
    A4        2.09440   0.00342   0.00000   0.02105   0.02105   2.11544
    A5        2.09440   0.00342   0.00000   0.02105   0.02105   2.11544
    A6        2.09440  -0.00684   0.00000  -0.04210  -0.04210   2.05230
    D1        3.14159   0.00000   0.00000   0.00000   0.00000   3.14159
    D2        0.00000   0.00000   0.00000   0.00000   0.00000   0.00000
    D3        0.00000   0.00000   0.00000   0.00000   0.00000   0.00000
    D4        3.14159   0.00000   0.00000   0.00000   0.00000   3.14159
         Item               Value     Threshold  Converged?
 Maximum Force            0.018000     0.000015     NO 
 RMS     Force            0.007412     0.000010     NO 
 Maximum Displacement     0.045110     0.000060     NO 
 RMS     Displacement     0.024310     0.000040     NO 
 Predicted change in Energy=-1.230808D-03
 GradGradGradGradGradGradGradGradGradGradGradGradGradGradGradGradGradGrad

 Leave Link  103 at Wed Mar 22 13:02:34 2006, MaxMem=    6291456 cpu:       0.0
 (Enter /tftpboot/usr/local/g03/l202.exe)
                          Input orientation:                          
 ---------------------------------------------------------------------
 Center     Atomic     Atomic              Coordinates (Angstroms)
 Number     Number      Type              X           Y           Z
 ---------------------------------------------------------------------
    1          6             0        0.000000    0.000000    0.008130
    2          6             0        0.000000    0.000000    1.326870
    3          1             0        0.919230    0.000000    1.883707
    4          1             0       -0.919230    0.000000    1.883707
    5          1             0       -0.919230    0.000000   -0.548707
    6          1             0        0.919230    0.000000   -0.548707
 ---------------------------------------------------------------------
                    Distance matrix (angstroms):
                    1          2          3          4          5
     1  C    0.000000
     2  C    1.318741   0.000000
     3  H    2.088726   1.074733   0.000000
     4  H    2.088726   1.074733   1.838461   0.000000
     5  H    1.074733   2.088726   3.049029   2.432414   0.000000
     6  H    1.074733   2.088726   2.432414   3.049029   1.838461
                    6
     6  H    0.000000
 Stoichiometry    C2H4
 Framework group  D2H[C2"(C.C),SG(H4)]
 Deg. of freedom     3
 Full point group                 D2H     NOp   8
 Largest Abelian subgroup         D2H     NOp   8
 Largest concise Abelian subgroup D2      NOp   4
                         Standard orientation:                         
 ---------------------------------------------------------------------
 Center     Atomic     Atomic              Coordinates (Angstroms)
 Number     Number      Type              X           Y           Z
 ---------------------------------------------------------------------
    1          6             0        0.000000    0.000000    0.659370
    2          6             0        0.000000    0.000000   -0.659370
    3          1             0        0.000000    0.919230   -1.216207
    4          1             0        0.000000   -0.919230   -1.216207
    5          1             0        0.000000   -0.919230    1.216207
    6          1             0        0.000000    0.919230    1.216207
 ---------------------------------------------------------------------
 Rotational constants (GHZ):    148.3622067     30.8206825     25.5193143
 Leave Link  202 at Wed Mar 22 13:02:34 2006, MaxMem=    6291456 cpu:       0.1
 (Enter /tftpboot/usr/local/g03/l301.exe)
 Standard basis: 6-311++G(d,p) (5D, 7F)
 There are    17 symmetry adapted basis functions of AG  symmetry.
 There are     2 symmetry adapted basis functions of B1G symmetry.
 There are     6 symmetry adapted basis functions of B2G symmetry.
 There are    11 symmetry adapted basis functions of B3G symmetry.
 There are     2 symmetry adapted basis functions of AU  symmetry.
 There are    17 symmetry adapted basis functions of B1U symmetry.
 There are    11 symmetry adapted basis functions of B2U symmetry.
 There are     6 symmetry adapted basis functions of B3U symmetry.
 Integral buffers will be    262144 words long.
 Raffenetti 1 integral format.
 Two-electron integral symmetry is turned on.
    72 basis functions,   108 primitive gaussians,    74 cartesian basis functions
     8 alpha electrons        8 beta electrons
       nuclear repulsion energy        33.7012816709 Hartrees.
 IExCor=   0 DFT=F Ex=HF Corr=None ExCW=0 ScaHFX=  1.000000
 ScaDFX=  1.000000  1.000000  1.000000  1.000000
 IRadAn=      0 IRanWt=     -1 IRanGd=            0 ICorTp=0
 NAtoms=    6 NActive=    6 NUniq=    2 SFac= 5.66D+00 NAtFMM=   60 Big=F
 Leave Link  301 at Wed Mar 22 13:02:34 2006, MaxMem=    6291456 cpu:       0.0
 (Enter /tftpboot/usr/local/g03/l302.exe)
 NPDir=0 NMtPBC=     1 NCelOv=     1 NCel=       1 NClECP=     1 NCelD=      1
         NCelK=      1 NCelE2=     1 NClLst=     1 CellRange=     0.0.
 One-electron integrals computed using PRISM.
 One-electron integral symmetry used in STVInt
 NBasis=    72 RedAO= T  NBF=    17     2     6    11     2    17    11     6
 NBsUse=    72 1.00D-06 NBFU=    17     2     6    11     2    17    11     6
 Leave Link  302 at Wed Mar 22 13:02:34 2006, MaxMem=    6291456 cpu:       0.2
 (Enter /tftpboot/usr/local/g03/l303.exe)
 DipDrv:  MaxL=1.
 Leave Link  303 at Wed Mar 22 13:02:34 2006, MaxMem=    6291456 cpu:       0.0
 (Enter /tftpboot/usr/local/g03/l401.exe)
 Initial guess read from the read-write file:
 Guess basis will be translated and rotated to current coordinates.
 Initial guess orbital symmetries:
       Occupied  (AG) (B1U) (AG) (B1U) (B2U) (AG) (B3G) (B3U)
       Virtual   (AG) (B1U) (B2U) (B3G) (B2G) (B3U) (AG) (B1U)
                 (AG) (B2U) (B1U) (B2G) (B3G) (AG) (B2U) (B1U)
                 (B3G) (B1U) (AG) (B2U) (AG) (B1U) (B3U) (B2G)
                 (B2U) (B3G) (B1U) (AG) (B3G) (B1U) (B1G) (B3U)
                 (AU) (AG) (B3G) (B2U) (B1U) (B2G) (B2U) (AG) (B3U)
                 (B1G) (B1U) (B2G) (AG) (B3G) (AU) (B1U) (AG) (B2U)
                 (B2U) (B3G) (AG) (B1U) (B3U) (B1U) (B2G) (B3G)
                 (AG) (B2U) (B3G) (B1U) (AG) (B1U)
 The electronic state of the initial guess is 1-AG.
 Generating alternative initial guess.
 Harris functional with IExCor=  205 diagonalized for initial guess.
 ExpMin= 3.60D-02 ExpMax= 4.56D+03 ExpMxC= 6.82D+02 IAcc=3 IRadAn=         5 AccDes= 0.00D+00
 HarFok:  IExCor= 205 AccDes= 0.00D+00 IRadAn=         5 IDoV=1
 ScaDFX=  1.000000  1.000000  1.000000  1.000000
 Harris En= -78.2739601239236    
 Leave Link  401 at Wed Mar 22 13:02:35 2006, MaxMem=    6291456 cpu:       0.4
 (Enter /tftpboot/usr/local/g03/l502.exe)
 Closed shell SCF:
 Requested convergence on RMS density matrix=1.00D-08 within 128 cycles.
 Requested convergence on MAX density matrix=1.00D-06.
 Requested convergence on             energy=1.00D-06.
 No special actions if energy rises.
 Using DIIS extrapolation, IDIIS=  1040.
 Integral symmetry usage will be decided dynamically.
 Keep R1 integrals in memory in canonical form, NReq=     4525770.
 IEnd=     35931 IEndB=     35931 NGot=   6291456 MDV=   2426002
 LenX=   2426002
 Symmetry not used in FoFDir.
 MinBra= 0 MaxBra= 2 Meth= 1.
 IRaf=       0 NMat=   1 IRICut=       1 DoRegI=T DoRafI=F ISym2E= 0 JSym2E=0.

 Cycle   1  Pass 1  IDiag  1:
 E= -78.0557628228014    
 DIIS: error= 2.23D-03 at cycle   1 NSaved=   1.
 NSaved= 1 IEnMin= 1 EnMin= -78.0557628228014     IErMin= 1 ErrMin= 2.23D-03
 ErrMax= 2.23D-03 EMaxC= 1.00D-01 BMatC= 3.27D-04 BMatP= 3.27D-04
 IDIUse=3 WtCom= 9.78D-01 WtEn= 2.23D-02
 Coeff-Com:  0.100D+01
 Coeff-En:   0.100D+01
 Coeff:      0.100D+01
 Gap=     0.432 Goal=   None    Shift=    0.000
 GapD=    0.432 DampG=2.000 DampE=1.000 DampFc=2.0000 IDamp=-1.
 RMSDP=1.91D-04 MaxDP=2.29D-03              OVMax= 4.97D-03

 Cycle   2  Pass 1  IDiag  1:
 E= -78.0560332455906     Delta-E=       -0.000270422789 Rises=F Damp=F
 DIIS: error= 8.60D-04 at cycle   2 NSaved=   2.
 NSaved= 2 IEnMin= 2 EnMin= -78.0560332455906     IErMin= 2 ErrMin= 8.60D-04
 ErrMax= 8.60D-04 EMaxC= 1.00D-01 BMatC= 1.67D-05 BMatP= 3.27D-04
 IDIUse=3 WtCom= 9.91D-01 WtEn= 8.60D-03
 Coeff-Com:  0.221D-01 0.978D+00
 Coeff-En:   0.000D+00 0.100D+01
 Coeff:      0.219D-01 0.978D+00
 Gap=     0.428 Goal=   None    Shift=    0.000
 RMSDP=5.11D-05 MaxDP=1.25D-03 DE=-2.70D-04 OVMax= 1.48D-03

 Cycle   3  Pass 1  IDiag  1:
 E= -78.0560495974457     Delta-E=       -0.000016351855 Rises=F Damp=F
 DIIS: error= 2.76D-04 at cycle   3 NSaved=   3.
 NSaved= 3 IEnMin= 3 EnMin= -78.0560495974457     IErMin= 3 ErrMin= 2.76D-04
 ErrMax= 2.76D-04 EMaxC= 1.00D-01 BMatC= 1.72D-06 BMatP= 1.67D-05
 IDIUse=3 WtCom= 9.97D-01 WtEn= 2.76D-03
 Coeff-Com: -0.411D-01 0.177D+00 0.864D+00
 Coeff-En:   0.000D+00 0.000D+00 0.100D+01
 Coeff:     -0.410D-01 0.177D+00 0.864D+00
 Gap=     0.429 Goal=   None    Shift=    0.000
 RMSDP=1.16D-05 MaxDP=1.37D-04 DE=-1.64D-05 OVMax= 5.46D-04

 Cycle   4  Pass 1  IDiag  1:
 E= -78.0560516312267     Delta-E=       -0.000002033781 Rises=F Damp=F
 DIIS: error= 4.34D-05 at cycle   4 NSaved=   4.
 NSaved= 4 IEnMin= 4 EnMin= -78.0560516312267     IErMin= 4 ErrMin= 4.34D-05
 ErrMax= 4.34D-05 EMaxC= 1.00D-01 BMatC= 3.46D-08 BMatP= 1.72D-06
 IDIUse=1 WtCom= 1.00D+00 WtEn= 0.00D+00
 Coeff-Com:  0.531D-02-0.568D-01-0.123D+00 0.117D+01
 Coeff:      0.531D-02-0.568D-01-0.123D+00 0.117D+01
 Gap=     0.429 Goal=   None    Shift=    0.000
 RMSDP=3.90D-06 MaxDP=5.73D-05 DE=-2.03D-06 OVMax= 1.04D-04

 Cycle   5  Pass 1  IDiag  1:
 E= -78.0560517032376     Delta-E=       -0.000000072011 Rises=F Damp=F
 DIIS: error= 7.01D-06 at cycle   5 NSaved=   5.
 NSaved= 5 IEnMin= 5 EnMin= -78.0560517032376     IErMin= 5 ErrMin= 7.01D-06
 ErrMax= 7.01D-06 EMaxC= 1.00D-01 BMatC= 8.29D-10 BMatP= 3.46D-08
 IDIUse=1 WtCom= 1.00D+00 WtEn= 0.00D+00
 Coeff-Com:  0.475D-03 0.104D-02-0.687D-02-0.133D+00 0.114D+01
 Coeff:      0.475D-03 0.104D-02-0.687D-02-0.133D+00 0.114D+01
 Gap=     0.429 Goal=   None    Shift=    0.000
 RMSDP=7.83D-07 MaxDP=6.00D-06 DE=-7.20D-08 OVMax= 2.65D-05

 Cycle   6  Pass 1  IDiag  1:
 E= -78.0560517056424     Delta-E=       -0.000000002405 Rises=F Damp=F
 DIIS: error= 1.60D-06 at cycle   6 NSaved=   6.
 NSaved= 6 IEnMin= 6 EnMin= -78.0560517056424     IErMin= 6 ErrMin= 1.60D-06
 ErrMax= 1.60D-06 EMaxC= 1.00D-01 BMatC= 4.07D-11 BMatP= 8.29D-10
 IDIUse=1 WtCom= 1.00D+00 WtEn= 0.00D+00
 Coeff-Com: -0.218D-03 0.992D-03 0.509D-02 0.629D-02-0.338D+00 0.133D+01
 Coeff:     -0.218D-03 0.992D-03 0.509D-02 0.629D-02-0.338D+00 0.133D+01
 Gap=     0.429 Goal=   None    Shift=    0.000
 RMSDP=2.02D-07 MaxDP=1.55D-06 DE=-2.40D-09 OVMax= 8.54D-06

 Cycle   7  Pass 1  IDiag  1:
 E= -78.0560517057836     Delta-E=       -0.000000000141 Rises=F Damp=F
 DIIS: error= 2.63D-07 at cycle   7 NSaved=   7.
 NSaved= 7 IEnMin= 7 EnMin= -78.0560517057836     IErMin= 7 ErrMin= 2.63D-07
 ErrMax= 2.63D-07 EMaxC= 1.00D-01 BMatC= 8.06D-13 BMatP= 4.07D-11
 IDIUse=1 WtCom= 1.00D+00 WtEn= 0.00D+00
 Coeff-Com:  0.364D-04-0.222D-03-0.878D-03 0.564D-03 0.554D-01-0.320D+00
 Coeff-Com:  0.127D+01
 Coeff:      0.364D-04-0.222D-03-0.878D-03 0.564D-03 0.554D-01-0.320D+00
 Coeff:      0.127D+01
 Gap=     0.429 Goal=   None    Shift=    0.000
 RMSDP=2.56D-08 MaxDP=2.45D-07 DE=-1.41D-10 OVMax= 1.44D-06

 Cycle   8  Pass 1  IDiag  1:
 E= -78.0560517057867     Delta-E=       -0.000000000003 Rises=F Damp=F
 DIIS: error= 3.86D-08 at cycle   8 NSaved=   8.
 NSaved= 8 IEnMin= 8 EnMin= -78.0560517057867     IErMin= 8 ErrMin= 3.86D-08
 ErrMax= 3.86D-08 EMaxC= 1.00D-01 BMatC= 2.70D-14 BMatP= 8.06D-13
 IDIUse=1 WtCom= 1.00D+00 WtEn= 0.00D+00
 Coeff-Com: -0.794D-05 0.647D-04 0.233D-03-0.961D-03-0.737D-02 0.690D-01
 Coeff-Com: -0.418D+00 0.136D+01
 Coeff:     -0.794D-05 0.647D-04 0.233D-03-0.961D-03-0.737D-02 0.690D-01
 Coeff:     -0.418D+00 0.136D+01
 Gap=     0.429 Goal=   None    Shift=    0.000
 RMSDP=5.06D-09 MaxDP=5.51D-08 DE=-3.07D-12 OVMax= 2.12D-07

 SCF Done:  E(RHF) =  -78.0560517058     A.U. after    8 cycles
             Convg  =    0.5059D-08             -V/T =  2.0003
             S**2   =   0.0000
 KE= 7.803255066692D+01 PE=-2.487058557983D+02 EE= 5.891597175468D+01
 Leave Link  502 at Wed Mar 22 13:02:37 2006, MaxMem=    6291456 cpu:       1.5
 (Enter /tftpboot/usr/local/g03/l701.exe)
 Compute integral first derivatives.
 ... and contract with generalized density number  0.
 Leave Link  701 at Wed Mar 22 13:02:37 2006, MaxMem=    6291456 cpu:       0.2
 (Enter /tftpboot/usr/local/g03/l702.exe)
 L702 exits ... SP integral derivatives will be done elsewhere.
 Leave Link  702 at Wed Mar 22 13:02:37 2006, MaxMem=    6291456 cpu:       0.0
 (Enter /tftpboot/usr/local/g03/l703.exe)
 Compute integral first derivatives, UseDBF=F.
 Integral derivatives from FoFDir, PRISM(SPDF).
 Petite list used in FoFDir.
 MinBra= 0 MaxBra= 2 Meth= 1.
 IRaf=       0 NMat=   1 IRICut=       1 DoRegI=T DoRafI=F ISym2E= 1 JSym2E=1.
 Leave Link  703 at Wed Mar 22 13:02:39 2006, MaxMem=    6291456 cpu:       1.3
 (Enter /tftpboot/usr/local/g03/l716.exe)
 Dipole        =-5.56534544D-17-4.44089210D-16 0.00000000D+00
 ***** Axes restored to original set *****
 -------------------------------------------------------------------
 Center     Atomic                   Forces (Hartrees/Bohr)
 Number     Number              X              Y              Z
 -------------------------------------------------------------------
    1          6           0.000000000    0.000000000    0.003089003
    2          6           0.000000000    0.000000000   -0.003089003
    3          1           0.000348428    0.000000000    0.001921867
    4          1          -0.000348428    0.000000000    0.001921867
    5          1          -0.000348428    0.000000000   -0.001921867
    6          1           0.000348428    0.000000000   -0.001921867
 -------------------------------------------------------------------
 Cartesian Forces:  Max     0.003089003 RMS     0.001381299
 Leave Link  716 at Wed Mar 22 13:02:39 2006, MaxMem=    6291456 cpu:       0.0
 (Enter /tftpboot/usr/local/g03/l103.exe)

 GradGradGradGradGradGradGradGradGradGradGradGradGradGradGradGradGradGrad
 Berny optimization.
 Internal  Forces:  Max     0.001981215 RMS     0.001126664
 Search for a local minimum.
 Step number   2 out of a maximum of 100
 All quantities printed in internal units (Hartrees-Bohrs-Radians)
 Update second derivatives using D2CorX and points  1  2
 Trust test= 1.04D+00 RLast= 9.57D-02 DXMaxT set to 3.00D-01
 The second derivative matrix:
                          R1        R2        R3        R4        R5
           R1           0.60002
           R2           0.01610   0.36197
           R3           0.01610   0.01269   0.36197
           R4           0.01610   0.01269   0.01269   0.36197
           R5           0.01610   0.01269   0.01269   0.01269   0.36197
           A1           0.00561   0.00199   0.00199   0.00199   0.00199
           A2           0.00561   0.00199   0.00199   0.00199   0.00199
           A3          -0.01122  -0.00399  -0.00399  -0.00399  -0.00399
           A4           0.00561   0.00199   0.00199   0.00199   0.00199
           A5           0.00561   0.00199   0.00199   0.00199   0.00199
           A6          -0.01122  -0.00399  -0.00399  -0.00399  -0.00399
           D1           0.00000   0.00000   0.00000   0.00000   0.00000
           D2           0.00000   0.00000   0.00000   0.00000   0.00000
           D3           0.00000   0.00000   0.00000   0.00000   0.00000
           D4           0.00000   0.00000   0.00000   0.00000   0.00000
                          A1        A2        A3        A4        A5
           A1           0.15782
           A2          -0.00218   0.15782
           A3           0.00437   0.00437   0.15126
           A4          -0.00218  -0.00218   0.00437   0.15782
           A5          -0.00218  -0.00218   0.00437  -0.00218   0.15782
           A6           0.00437   0.00437  -0.00874   0.00437   0.00437
           D1           0.00000   0.00000   0.00000   0.00000   0.00000
           D2           0.00000   0.00000   0.00000   0.00000   0.00000
           D3           0.00000   0.00000   0.00000   0.00000   0.00000
           D4           0.00000   0.00000   0.00000   0.00000   0.00000
                          A6        D1        D2        D3        D4
           A6           0.15126
           D1           0.00000   0.02949
           D2           0.00000   0.00000   0.02949
           D3           0.00000   0.00000   0.00000   0.02949
           D4           0.00000   0.00000   0.00000   0.00000   0.02949
     Eigenvalues ---    0.02949   0.02949   0.02949   0.13239   0.16000
     Eigenvalues ---    0.16000   0.16000   0.34928   0.34928   0.34928
     Eigenvalues ---    0.39542   0.606051000.000001000.000001000.00000
 RFO step:  Lambda=-9.64257750D-05.
 Quartic linear search produced a step of  0.03586.
 Iteration  1 RMS(Cart)=  0.00770095 RMS(Int)=  0.00002839
 Iteration  2 RMS(Cart)=  0.00002893 RMS(Int)=  0.00000000
 Iteration  3 RMS(Cart)=  0.00000000 RMS(Int)=  0.00000000
 Variable       Old X    -DE/DX   Delta X   Delta X   Delta X     New X
                                 (Linear)    (Quad)   (Total)
    R1        2.49206   0.00075  -0.00110   0.00127   0.00017   2.49223
    R2        2.03095   0.00129  -0.00097   0.00379   0.00282   2.03377
    R3        2.03095   0.00129  -0.00097   0.00379   0.00282   2.03377
    R4        2.03095   0.00129  -0.00097   0.00379   0.00282   2.03377
    R5        2.03095   0.00129  -0.00097   0.00379   0.00282   2.03377
    A1        2.11544   0.00099   0.00075   0.00642   0.00717   2.12261
    A2        2.11544   0.00099   0.00075   0.00642   0.00717   2.12261
    A3        2.05230  -0.00198  -0.00151  -0.01283  -0.01434   2.03796
    A4        2.11544   0.00099   0.00075   0.00642   0.00717   2.12261
    A5        2.11544   0.00099   0.00075   0.00642   0.00717   2.12261
    A6        2.05230  -0.00198  -0.00151  -0.01283  -0.01434   2.03796
    D1        3.14159   0.00000   0.00000   0.00000   0.00000   3.14159
    D2        0.00000   0.00000   0.00000   0.00000   0.00000   0.00000
    D3        0.00000   0.00000   0.00000   0.00000   0.00000   0.00000
    D4        3.14159   0.00000   0.00000   0.00000   0.00000  -3.14159
         Item               Value     Threshold  Converged?
 Maximum Force            0.001981     0.000015     NO 
 RMS     Force            0.001127     0.000010     NO 
 Maximum Displacement     0.013992     0.000060     NO 
 RMS     Displacement     0.007706     0.000040     NO 
 Predicted change in Energy=-5.026975D-05
 GradGradGradGradGradGradGradGradGradGradGradGradGradGradGradGradGradGrad

 Leave Link  103 at Wed Mar 22 13:02:39 2006, MaxMem=    6291456 cpu:       0.0
 (Enter /tftpboot/usr/local/g03/l202.exe)
                          Input orientation:                          
 ---------------------------------------------------------------------
 Center     Atomic     Atomic              Coordinates (Angstroms)
 Number     Number      Type              X           Y           Z
 ---------------------------------------------------------------------
    1          6             0        0.000000    0.000000    0.008085
    2          6             0        0.000000    0.000000    1.326915
    3          1             0        0.916485    0.000000    1.891111
    4          1             0       -0.916485    0.000000    1.891111
    5          1             0       -0.916485    0.000000   -0.556111
    6          1             0        0.916485    0.000000   -0.556111
 ---------------------------------------------------------------------
                    Distance matrix (angstroms):
                    1          2          3          4          5
     1  C    0.000000
     2  C    1.318830   0.000000
     3  H    2.094214   1.076226   0.000000
     4  H    2.094214   1.076226   1.832970   0.000000
     5  H    1.076226   2.094214   3.057561   2.447222   0.000000
     6  H    1.076226   2.094214   2.447222   3.057561   1.832970
                    6
     6  H    0.000000
 Stoichiometry    C2H4
 Framework group  D2H[C2"(C.C),SG(H4)]
 Deg. of freedom     3
 Full point group                 D2H     NOp   8
 Largest Abelian subgroup         D2H     NOp   8
 Largest concise Abelian subgroup D2      NOp   4
                         Standard orientation:                         
 ---------------------------------------------------------------------
 Center     Atomic     Atomic              Coordinates (Angstroms)
 Number     Number      Type              X           Y           Z
 ---------------------------------------------------------------------
    1          6             0        0.000000    0.000000    0.659415
    2          6             0        0.000000    0.000000   -0.659415
    3          1             0        0.000000    0.916485   -1.223611
    4          1             0        0.000000   -0.916485   -1.223611
    5          1             0        0.000000   -0.916485    1.223611
    6          1             0        0.000000    0.916485    1.223611
 ---------------------------------------------------------------------
 Rotational constants (GHZ):    149.2523727     30.6817876     25.4500290
 Leave Link  202 at Wed Mar 22 13:02:39 2006, MaxMem=    6291456 cpu:       0.1
 (Enter /tftpboot/usr/local/g03/l301.exe)
 Standard basis: 6-311++G(d,p) (5D, 7F)
 There are    17 symmetry adapted basis functions of AG  symmetry.
 There are     2 symmetry adapted basis functions of B1G symmetry.
 There are     6 symmetry adapted basis functions of B2G symmetry.
 There are    11 symmetry adapted basis functions of B3G symmetry.
 There are     2 symmetry adapted basis functions of AU  symmetry.
 There are    17 symmetry adapted basis functions of B1U symmetry.
 There are    11 symmetry adapted basis functions of B2U symmetry.
 There are     6 symmetry adapted basis functions of B3U symmetry.
 Integral buffers will be    262144 words long.
 Raffenetti 1 integral format.
 Two-electron integral symmetry is turned on.
    72 basis functions,   108 primitive gaussians,    74 cartesian basis functions
     8 alpha electrons        8 beta electrons
       nuclear repulsion energy        33.6661068007 Hartrees.
 IExCor=   0 DFT=F Ex=HF Corr=None ExCW=0 ScaHFX=  1.000000
 ScaDFX=  1.000000  1.000000  1.000000  1.000000
 IRadAn=      0 IRanWt=     -1 IRanGd=            0 ICorTp=0
 NAtoms=    6 NActive=    6 NUniq=    2 SFac= 5.66D+00 NAtFMM=   60 Big=F
 Leave Link  301 at Wed Mar 22 13:02:39 2006, MaxMem=    6291456 cpu:       0.0
 (Enter /tftpboot/usr/local/g03/l302.exe)
 NPDir=0 NMtPBC=     1 NCelOv=     1 NCel=       1 NClECP=     1 NCelD=      1
         NCelK=      1 NCelE2=     1 NClLst=     1 CellRange=     0.0.
 One-electron integrals computed using PRISM.
 One-electron integral symmetry used in STVInt
 NBasis=    72 RedAO= T  NBF=    17     2     6    11     2    17    11     6
 NBsUse=    72 1.00D-06 NBFU=    17     2     6    11     2    17    11     6
 Leave Link  302 at Wed Mar 22 13:02:40 2006, MaxMem=    6291456 cpu:       0.2
 (Enter /tftpboot/usr/local/g03/l303.exe)
 DipDrv:  MaxL=1.
 Leave Link  303 at Wed Mar 22 13:02:40 2006, MaxMem=    6291456 cpu:       0.0
 (Enter /tftpboot/usr/local/g03/l401.exe)
 Initial guess read from the read-write file:
 Guess basis will be translated and rotated to current coordinates.
 Initial guess orbital symmetries:
       Occupied  (AG) (B1U) (AG) (B1U) (B2U) (AG) (B3G) (B3U)
       Virtual   (AG) (B1U) (B2U) (B3G) (B2G) (B3U) (AG) (B1U)
                 (AG) (B2U) (B1U) (B2G) (B3G) (AG) (B2U) (B1U)
                 (B3G) (B1U) (AG) (B2U) (AG) (B1U) (B3U) (B2G)
                 (B2U) (B3G) (B1U) (AG) (B3G) (B1U) (B1G) (B3U)
                 (AU) (AG) (B3G) (B2U) (AG) (B1U) (B2U) (B2G) (B3U)
                 (B1G) (B1U) (B2G) (B3G) (AG) (AU) (B1U) (AG) (B2U)
                 (B3G) (B2U) (AG) (B1U) (B3U) (B1U) (B2G) (B3G)
                 (AG) (B2U) (B3G) (B1U) (AG) (B1U)
 The electronic state of the initial guess is 1-AG.
 Leave Link  401 at Wed Mar 22 13:02:40 2006, MaxMem=    6291456 cpu:       0.1
 (Enter /tftpboot/usr/local/g03/l502.exe)
 Closed shell SCF:
 Requested convergence on RMS density matrix=1.00D-08 within 128 cycles.
 Requested convergence on MAX density matrix=1.00D-06.
 Requested convergence on             energy=1.00D-06.
 No special actions if energy rises.
 Using DIIS extrapolation, IDIIS=  1040.
 Integral symmetry usage will be decided dynamically.
 Keep R1 integrals in memory in canonical form, NReq=     4525770.
 IEnd=     35931 IEndB=     35931 NGot=   6291456 MDV=   2426002
 LenX=   2426002
 Symmetry not used in FoFDir.
 MinBra= 0 MaxBra= 2 Meth= 1.
 IRaf=       0 NMat=   1 IRICut=       1 DoRegI=T DoRafI=F ISym2E= 0 JSym2E=0.

 Cycle   1  Pass 1  IDiag  1:
 E= -78.0560983312123    
 DIIS: error= 4.50D-04 at cycle   1 NSaved=   1.
 NSaved= 1 IEnMin= 1 EnMin= -78.0560983312123     IErMin= 1 ErrMin= 4.50D-04
 ErrMax= 4.50D-04 EMaxC= 1.00D-01 BMatC= 8.82D-06 BMatP= 8.82D-06
 IDIUse=3 WtCom= 9.96D-01 WtEn= 4.50D-03
 Coeff-Com:  0.100D+01
 Coeff-En:   0.100D+01
 Coeff:      0.100D+01
 Gap=     0.429 Goal=   None    Shift=    0.000
 RMSDP=3.16D-05 MaxDP=3.03D-04              OVMax= 7.91D-04

 Cycle   2  Pass 1  IDiag  1:
 E= -78.0561065492701     Delta-E=       -0.000008218058 Rises=F Damp=F
 DIIS: error= 9.00D-05 at cycle   2 NSaved=   2.
 NSaved= 2 IEnMin= 2 EnMin= -78.0561065492701     IErMin= 2 ErrMin= 9.00D-05
 ErrMax= 9.00D-05 EMaxC= 1.00D-01 BMatC= 3.14D-07 BMatP= 8.82D-06
 IDIUse=1 WtCom= 1.00D+00 WtEn= 0.00D+00
 Coeff-Com: -0.131D+00 0.113D+01
 Coeff:     -0.131D+00 0.113D+01
 Gap=     0.429 Goal=   None    Shift=    0.000
 RMSDP=7.91D-06 MaxDP=9.97D-05 DE=-8.22D-06 OVMax= 2.53D-04

 Cycle   3  Pass 1  IDiag  1:
 E= -78.0561070534488     Delta-E=       -0.000000504179 Rises=F Damp=F
 DIIS: error= 4.95D-05 at cycle   3 NSaved=   3.
 NSaved= 3 IEnMin= 3 EnMin= -78.0561070534488     IErMin= 3 ErrMin= 4.95D-05
 ErrMax= 4.95D-05 EMaxC= 1.00D-01 BMatC= 2.71D-08 BMatP= 3.14D-07
 IDIUse=1 WtCom= 1.00D+00 WtEn= 0.00D+00
 Coeff-Com: -0.392D-01 0.161D+00 0.878D+00
 Coeff:     -0.392D-01 0.161D+00 0.878D+00
 Gap=     0.429 Goal=   None    Shift=    0.000
 RMSDP=1.94D-06 MaxDP=2.74D-05 DE=-5.04D-07 OVMax= 8.68D-05

 Cycle   4  Pass 1  IDiag  1:
 E= -78.0561070940977     Delta-E=       -0.000000040649 Rises=F Damp=F
 DIIS: error= 1.14D-05 at cycle   4 NSaved=   4.
 NSaved= 4 IEnMin= 4 EnMin= -78.0561070940977     IErMin= 4 ErrMin= 1.14D-05
 ErrMax= 1.14D-05 EMaxC= 1.00D-01 BMatC= 2.12D-09 BMatP= 2.71D-08
 IDIUse=1 WtCom= 1.00D+00 WtEn= 0.00D+00
 Coeff-Com:  0.156D-01-0.127D+00-0.776D-01 0.119D+01
 Coeff:      0.156D-01-0.127D+00-0.776D-01 0.119D+01
 Gap=     0.429 Goal=   None    Shift=    0.000
 RMSDP=1.01D-06 MaxDP=8.48D-06 DE=-4.06D-08 OVMax= 3.97D-05

 Cycle   5  Pass 1  IDiag  1:
 E= -78.0561070993929     Delta-E=       -0.000000005295 Rises=F Damp=F
 DIIS: error= 1.47D-06 at cycle   5 NSaved=   5.
 NSaved= 5 IEnMin= 5 EnMin= -78.0561070993929     IErMin= 5 ErrMin= 1.47D-06
 ErrMax= 1.47D-06 EMaxC= 1.00D-01 BMatC= 3.49D-11 BMatP= 2.12D-09
 IDIUse=1 WtCom= 1.00D+00 WtEn= 0.00D+00
 Coeff-Com: -0.415D-02 0.364D-01 0.140D-02-0.354D+00 0.132D+01
 Coeff:     -0.415D-02 0.364D-01 0.140D-02-0.354D+00 0.132D+01
 Gap=     0.429 Goal=   None    Shift=    0.000
 RMSDP=1.76D-07 MaxDP=1.32D-06 DE=-5.30D-09 OVMax= 7.86D-06

 Cycle   6  Pass 1  IDiag  1:
 E= -78.0561070995079     Delta-E=       -0.000000000115 Rises=F Damp=F
 DIIS: error= 2.47D-07 at cycle   6 NSaved=   6.
 NSaved= 6 IEnMin= 6 EnMin= -78.0561070995079     IErMin= 6 ErrMin= 2.47D-07
 ErrMax= 2.47D-07 EMaxC= 1.00D-01 BMatC= 6.89D-13 BMatP= 3.49D-11
 IDIUse=1 WtCom= 1.00D+00 WtEn= 0.00D+00
 Coeff-Com:  0.693D-03-0.629D-02-0.344D-03 0.662D-01-0.331D+00 0.127D+01
 Coeff:      0.693D-03-0.629D-02-0.344D-03 0.662D-01-0.331D+00 0.127D+01
 Gap=     0.429 Goal=   None    Shift=    0.000
 RMSDP=3.58D-08 MaxDP=4.19D-07 DE=-1.15D-10 OVMax= 1.37D-06

 Cycle   7  Pass 1  IDiag  1:
 E= -78.0561070995105     Delta-E=       -0.000000000003 Rises=F Damp=F
 DIIS: error= 3.78D-08 at cycle   7 NSaved=   7.
 NSaved= 7 IEnMin= 7 EnMin= -78.0561070995105     IErMin= 7 ErrMin= 3.78D-08
 ErrMax= 3.78D-08 EMaxC= 1.00D-01 BMatC= 2.42D-14 BMatP= 6.89D-13
 IDIUse=1 WtCom= 1.00D+00 WtEn= 0.00D+00
 Coeff-Com: -0.107D-03 0.988D-03-0.153D-03-0.106D-01 0.700D-01-0.424D+00
 Coeff-Com:  0.136D+01
 Coeff:     -0.107D-03 0.988D-03-0.153D-03-0.106D-01 0.700D-01-0.424D+00
 Coeff:      0.136D+01
 Gap=     0.429 Goal=   None    Shift=    0.000
 RMSDP=6.81D-09 MaxDP=9.28D-08 DE=-2.57D-12 OVMax= 2.36D-07

 SCF Done:  E(RHF) =  -78.0561070995     A.U. after    7 cycles
             Convg  =    0.6812D-08             -V/T =  2.0004
             S**2   =   0.0000
 KE= 7.802177459130D+01 PE=-2.486252990030D+02 EE= 5.888131051144D+01
 Leave Link  502 at Wed Mar 22 13:02:42 2006, MaxMem=    6291456 cpu:       1.7
 (Enter /tftpboot/usr/local/g03/l701.exe)
 Compute integral first derivatives.
 ... and contract with generalized density number  0.
 Leave Link  701 at Wed Mar 22 13:02:42 2006, MaxMem=    6291456 cpu:       0.3
 (Enter /tftpboot/usr/local/g03/l702.exe)
 L702 exits ... SP integral derivatives will be done elsewhere.
 Leave Link  702 at Wed Mar 22 13:02:43 2006, MaxMem=    6291456 cpu:       0.0
 (Enter /tftpboot/usr/local/g03/l703.exe)
 Compute integral first derivatives, UseDBF=F.
 Integral derivatives from FoFDir, PRISM(SPDF).
 Petite list used in FoFDir.
 MinBra= 0 MaxBra= 2 Meth= 1.
 IRaf=       0 NMat=   1 IRICut=       1 DoRegI=T DoRafI=F ISym2E= 1 JSym2E=1.
 Leave Link  703 at Wed Mar 22 13:02:44 2006, MaxMem=    6291456 cpu:       1.1
 (Enter /tftpboot/usr/local/g03/l716.exe)
 Dipole        =-5.60362222D-17-2.22044605D-16 8.88178420D-16
 ***** Axes restored to original set *****
 -------------------------------------------------------------------
 Center     Atomic                   Forces (Hartrees/Bohr)
 Number     Number              X              Y              Z
 -------------------------------------------------------------------
    1          6           0.000000000    0.000000000    0.000964987
    2          6           0.000000000    0.000000000   -0.000964987
    3          1           0.000186174    0.000000000    0.000266110
    4          1          -0.000186174    0.000000000    0.000266110
    5          1          -0.000186174    0.000000000   -0.000266110
    6          1           0.000186174    0.000000000   -0.000266110
 -------------------------------------------------------------------
 Cartesian Forces:  Max     0.000964987 RMS     0.000356238
 Leave Link  716 at Wed Mar 22 13:02:44 2006, MaxMem=    6291456 cpu:       0.0
 (Enter /tftpboot/usr/local/g03/l103.exe)

 GradGradGradGradGradGradGradGradGradGradGradGradGradGradGradGradGradGrad
 Berny optimization.
 Internal  Forces:  Max     0.000432767 RMS     0.000205654
 Search for a local minimum.
 Step number   3 out of a maximum of 100
 All quantities printed in internal units (Hartrees-Bohrs-Radians)
 Update second derivatives using D2CorX and points  1  2  3
 Trust test= 1.10D+00 RLast= 2.55D-02 DXMaxT set to 3.00D-01
 The second derivative matrix:
                          R1        R2        R3        R4        R5
           R1           0.60305
           R2           0.01861   0.35781
           R3           0.01861   0.00852   0.35781
           R4           0.01861   0.00852   0.00852   0.35781
           R5           0.01861   0.00852   0.00852   0.00852   0.35781
           A1           0.01018  -0.00103  -0.00103  -0.00103  -0.00103
           A2           0.01018  -0.00103  -0.00103  -0.00103  -0.00103
           A3          -0.02037   0.00206   0.00206   0.00206   0.00206
           A4           0.01018  -0.00103  -0.00103  -0.00103  -0.00103
           A5           0.01018  -0.00103  -0.00103  -0.00103  -0.00103
           A6          -0.02037   0.00206   0.00206   0.00206   0.00206
           D1           0.00000   0.00000   0.00000   0.00000   0.00000
           D2           0.00000   0.00000   0.00000   0.00000   0.00000
           D3           0.00000   0.00000   0.00000   0.00000   0.00000
           D4           0.00000   0.00000   0.00000   0.00000   0.00000
                          A1        A2        A3        A4        A5
           A1           0.15728
           A2          -0.00272   0.15728
           A3           0.00544   0.00544   0.14911
           A4          -0.00272  -0.00272   0.00544   0.15728
           A5          -0.00272  -0.00272   0.00544  -0.00272   0.15728
           A6           0.00544   0.00544  -0.01089   0.00544   0.00544
           D1           0.00000   0.00000   0.00000   0.00000   0.00000
           D2           0.00000   0.00000   0.00000   0.00000   0.00000
           D3           0.00000   0.00000   0.00000   0.00000   0.00000
           D4           0.00000   0.00000   0.00000   0.00000   0.00000
                          A6        D1        D2        D3        D4
           A6           0.14911
           D1           0.00000   0.02949
           D2           0.00000   0.00000   0.02949
           D3           0.00000   0.00000   0.00000   0.02949
           D4           0.00000   0.00000   0.00000   0.00000   0.02949
     Eigenvalues ---    0.02949   0.02949   0.02949   0.12435   0.16000
     Eigenvalues ---    0.16000   0.16000   0.34928   0.34928   0.34928
     Eigenvalues ---    0.37787   0.611521000.000001000.000001000.00000
 RFO step:  Lambda=-9.59970633D-07.
 Quartic linear search produced a step of  0.12129.
 Iteration  1 RMS(Cart)=  0.00071133 RMS(Int)=  0.00000044
 Iteration  2 RMS(Cart)=  0.00000048 RMS(Int)=  0.00000001
 Variable       Old X    -DE/DX   Delta X   Delta X   Delta X     New X
                                 (Linear)    (Quad)   (Total)
    R1        2.49223  -0.00043   0.00002  -0.00100  -0.00098   2.49124
    R2        2.03377   0.00030   0.00034   0.00051   0.00085   2.03462
    R3        2.03377   0.00030   0.00034   0.00051   0.00085   2.03462
    R4        2.03377   0.00030   0.00034   0.00051   0.00085   2.03462
    R5        2.03377   0.00030   0.00034   0.00051   0.00085   2.03462
    A1        2.12261   0.00009   0.00087  -0.00008   0.00079   2.12341
    A2        2.12261   0.00009   0.00087  -0.00008   0.00079   2.12341
    A3        2.03796  -0.00017  -0.00174   0.00015  -0.00159   2.03637
    A4        2.12261   0.00009   0.00087  -0.00008   0.00079   2.12341
    A5        2.12261   0.00009   0.00087  -0.00008   0.00079   2.12341
    A6        2.03796  -0.00017  -0.00174   0.00015  -0.00159   2.03637
    D1        3.14159   0.00000   0.00000   0.00000   0.00000   3.14159
    D2        0.00000   0.00000   0.00000   0.00000   0.00000   0.00000
    D3        0.00000   0.00000   0.00000   0.00000   0.00000   0.00000
    D4        3.14159   0.00000   0.00000   0.00000   0.00000   3.14159
         Item               Value     Threshold  Converged?
 Maximum Force            0.000433     0.000015     NO 
 RMS     Force            0.000206     0.000010     NO 
 Maximum Displacement     0.001328     0.000060     NO 
 RMS     Displacement     0.000711     0.000040     NO 
 Predicted change in Energy=-1.136118D-06
 GradGradGradGradGradGradGradGradGradGradGradGradGradGradGradGradGradGrad

 Leave Link  103 at Wed Mar 22 13:02:44 2006, MaxMem=    6291456 cpu:       0.0
 (Enter /tftpboot/usr/local/g03/l202.exe)
                          Input orientation:                          
 ---------------------------------------------------------------------
 Center     Atomic     Atomic              Coordinates (Angstroms)
 Number     Number      Type              X           Y           Z
 ---------------------------------------------------------------------
    1          6             0        0.000000    0.000000    0.008345
    2          6             0        0.000000    0.000000    1.326655
    3          1             0        0.916421    0.000000    1.891814
    4          1             0       -0.916421    0.000000    1.891814
    5          1             0       -0.916421    0.000000   -0.556814
    6          1             0        0.916421    0.000000   -0.556814
 ---------------------------------------------------------------------
                    Distance matrix (angstroms):
                    1          2          3          4          5
     1  C    0.000000
     2  C    1.318309   0.000000
     3  H    2.094583   1.076676   0.000000
     4  H    2.094583   1.076676   1.832841   0.000000
     5  H    1.076676   2.094583   3.058608   2.448628   0.000000
     6  H    1.076676   2.094583   2.448628   3.058608   1.832841
                    6
     6  H    0.000000
 Stoichiometry    C2H4
 Framework group  D2H[C2"(C.C),SG(H4)]
 Deg. of freedom     3
 Full point group                 D2H     NOp   8
 Largest Abelian subgroup         D2H     NOp   8
 Largest concise Abelian subgroup D2      NOp   4
                         Standard orientation:                         
 ---------------------------------------------------------------------
 Center     Atomic     Atomic              Coordinates (Angstroms)
 Number     Number      Type              X           Y           Z
 ---------------------------------------------------------------------
    1          6             0        0.000000    0.000000    0.659155
    2          6             0        0.000000    0.000000   -0.659155
    3          1             0        0.000000    0.916421   -1.224314
    4          1             0        0.000000   -0.916421   -1.224314
    5          1             0        0.000000   -0.916421    1.224314
    6          1             0        0.000000    0.916421    1.224314
 ---------------------------------------------------------------------
 Rotational constants (GHZ):    149.2733495     30.6842097     25.4523054
 Leave Link  202 at Wed Mar 22 13:02:44 2006, MaxMem=    6291456 cpu:       0.1
 (Enter /tftpboot/usr/local/g03/l301.exe)
 Standard basis: 6-311++G(d,p) (5D, 7F)
 There are    17 symmetry adapted basis functions of AG  symmetry.
 There are     2 symmetry adapted basis functions of B1G symmetry.
 There are     6 symmetry adapted basis functions of B2G symmetry.
 There are    11 symmetry adapted basis functions of B3G symmetry.
 There are     2 symmetry adapted basis functions of AU  symmetry.
 There are    17 symmetry adapted basis functions of B1U symmetry.
 There are    11 symmetry adapted basis functions of B2U symmetry.
 There are     6 symmetry adapted basis functions of B3U symmetry.
 Integral buffers will be    262144 words long.
 Raffenetti 1 integral format.
 Two-electron integral symmetry is turned on.
    72 basis functions,   108 primitive gaussians,    74 cartesian basis functions
     8 alpha electrons        8 beta electrons
       nuclear repulsion energy        33.6654776847 Hartrees.
 IExCor=   0 DFT=F Ex=HF Corr=None ExCW=0 ScaHFX=  1.000000
 ScaDFX=  1.000000  1.000000  1.000000  1.000000
 IRadAn=      0 IRanWt=     -1 IRanGd=            0 ICorTp=0
 NAtoms=    6 NActive=    6 NUniq=    2 SFac= 5.66D+00 NAtFMM=   60 Big=F
 Leave Link  301 at Wed Mar 22 13:02:44 2006, MaxMem=    6291456 cpu:       0.0
 (Enter /tftpboot/usr/local/g03/l302.exe)
 NPDir=0 NMtPBC=     1 NCelOv=     1 NCel=       1 NClECP=     1 NCelD=      1
         NCelK=      1 NCelE2=     1 NClLst=     1 CellRange=     0.0.
 One-electron integrals computed using PRISM.
 One-electron integral symmetry used in STVInt
 NBasis=    72 RedAO= T  NBF=    17     2     6    11     2    17    11     6
 NBsUse=    72 1.00D-06 NBFU=    17     2     6    11     2    17    11     6
 Leave Link  302 at Wed Mar 22 13:02:45 2006, MaxMem=    6291456 cpu:       0.2
 (Enter /tftpboot/usr/local/g03/l303.exe)
 DipDrv:  MaxL=1.
 Leave Link  303 at Wed Mar 22 13:02:45 2006, MaxMem=    6291456 cpu:       0.0
 (Enter /tftpboot/usr/local/g03/l401.exe)
 Initial guess read from the read-write file:
 Guess basis will be translated and rotated to current coordinates.
 Initial guess orbital symmetries:
       Occupied  (AG) (B1U) (AG) (B1U) (B2U) (AG) (B3G) (B3U)
       Virtual   (AG) (B1U) (B2U) (B3G) (B2G) (B3U) (AG) (B1U)
                 (AG) (B2U) (B1U) (B2G) (B3G) (AG) (B2U) (B1U)
                 (B3G) (B1U) (AG) (B2U) (AG) (B1U) (B3U) (B2G)
                 (B2U) (B3G) (B1U) (AG) (B3G) (B1U) (B1G) (B3U)
                 (AU) (AG) (B3G) (B2U) (AG) (B2U) (B1U) (B2G) (B3U)
                 (B1G) (B1U) (B3G) (B2G) (AG) (AU) (B1U) (AG) (B2U)
                 (B3G) (B2U) (AG) (B1U) (B3U) (B1U) (B2G) (B3G)
                 (AG) (B2U) (B3G) (B1U) (AG) (B1U)
 The electronic state of the initial guess is 1-AG.
 Leave Link  401 at Wed Mar 22 13:02:45 2006, MaxMem=    6291456 cpu:       0.1
 (Enter /tftpboot/usr/local/g03/l502.exe)
 Closed shell SCF:
 Requested convergence on RMS density matrix=1.00D-08 within 128 cycles.
 Requested convergence on MAX density matrix=1.00D-06.
 Requested convergence on             energy=1.00D-06.
 No special actions if energy rises.
 Using DIIS extrapolation, IDIIS=  1040.
 Integral symmetry usage will be decided dynamically.
 Keep R1 integrals in memory in canonical form, NReq=     4525770.
 IEnd=     35931 IEndB=     35931 NGot=   6291456 MDV=   2426002
 LenX=   2426002
 Symmetry not used in FoFDir.
 MinBra= 0 MaxBra= 2 Meth= 1.
 IRaf=       0 NMat=   1 IRICut=       1 DoRegI=T DoRafI=F ISym2E= 0 JSym2E=0.

 Cycle   1  Pass 1  IDiag  1:
 E= -78.0561077770881    
 DIIS: error= 1.07D-04 at cycle   1 NSaved=   1.
 NSaved= 1 IEnMin= 1 EnMin= -78.0561077770881     IErMin= 1 ErrMin= 1.07D-04
 ErrMax= 1.07D-04 EMaxC= 1.00D-01 BMatC= 3.51D-07 BMatP= 3.51D-07
 IDIUse=3 WtCom= 9.99D-01 WtEn= 1.07D-03
 Coeff-Com:  0.100D+01
 Coeff-En:   0.100D+01
 Coeff:      0.100D+01
 Gap=     0.429 Goal=   None    Shift=    0.000
 RMSDP=5.92D-06 MaxDP=7.59D-05              OVMax= 1.93D-04

 Cycle   2  Pass 1  IDiag  1:
 E= -78.0561081201679     Delta-E=       -0.000000343080 Rises=F Damp=F
 DIIS: error= 3.03D-05 at cycle   2 NSaved=   2.
 NSaved= 2 IEnMin= 2 EnMin= -78.0561081201679     IErMin= 2 ErrMin= 3.03D-05
 ErrMax= 3.03D-05 EMaxC= 1.00D-01 BMatC= 1.40D-08 BMatP= 3.51D-07
 IDIUse=1 WtCom= 1.00D+00 WtEn= 0.00D+00
 Coeff-Com: -0.155D+00 0.116D+01
 Coeff:     -0.155D+00 0.116D+01
 Gap=     0.429 Goal=   None    Shift=    0.000
 RMSDP=1.72D-06 MaxDP=2.13D-05 DE=-3.43D-07 OVMax= 7.09D-05

 Cycle   3  Pass 1  IDiag  1:
 E= -78.0561081469723     Delta-E=       -0.000000026804 Rises=F Damp=F
 DIIS: error= 6.17D-06 at cycle   3 NSaved=   3.
 NSaved= 3 IEnMin= 3 EnMin= -78.0561081469723     IErMin= 3 ErrMin= 6.17D-06
 ErrMax= 6.17D-06 EMaxC= 1.00D-01 BMatC= 6.17D-10 BMatP= 1.40D-08
 IDIUse=1 WtCom= 1.00D+00 WtEn= 0.00D+00
 Coeff-Com:  0.140D-01-0.248D+00 0.123D+01
 Coeff:      0.140D-01-0.248D+00 0.123D+01
 Gap=     0.430 Goal=   None    Shift=    0.000
 RMSDP=5.00D-07 MaxDP=5.23D-06 DE=-2.68D-08 OVMax= 2.70D-05

 Cycle   4  Pass 1  IDiag  1:
 E= -78.0561081488461     Delta-E=       -0.000000001874 Rises=F Damp=F
 DIIS: error= 1.57D-06 at cycle   4 NSaved=   4.
 NSaved= 4 IEnMin= 4 EnMin= -78.0561081488461     IErMin= 4 ErrMin= 1.57D-06
 ErrMax= 1.57D-06 EMaxC= 1.00D-01 BMatC= 3.66D-11 BMatP= 6.17D-10
 IDIUse=1 WtCom= 1.00D+00 WtEn= 0.00D+00
 Coeff-Com:  0.535D-02-0.431D-01-0.192D-01 0.106D+01
 Coeff:      0.535D-02-0.431D-01-0.192D-01 0.106D+01
 Gap=     0.430 Goal=   None    Shift=    0.000
 RMSDP=1.21D-07 MaxDP=1.36D-06 DE=-1.87D-09 OVMax= 5.57D-06

 Cycle   5  Pass 1  IDiag  1:
 E= -78.0561081489442     Delta-E=       -0.000000000098 Rises=F Damp=F
 DIIS: error= 6.35D-07 at cycle   5 NSaved=   5.
 NSaved= 5 IEnMin= 5 EnMin= -78.0561081489442     IErMin= 5 ErrMin= 6.35D-07
 ErrMax= 6.35D-07 EMaxC= 1.00D-01 BMatC= 2.77D-12 BMatP= 3.66D-11
 IDIUse=1 WtCom= 1.00D+00 WtEn= 0.00D+00
 Coeff-Com: -0.102D-02 0.175D-01-0.103D+00 0.948D-01 0.992D+00
 Coeff:     -0.102D-02 0.175D-01-0.103D+00 0.948D-01 0.992D+00
 Gap=     0.430 Goal=   None    Shift=    0.000
 RMSDP=3.33D-08 MaxDP=3.51D-07 DE=-9.81D-11 OVMax= 2.41D-06

 Cycle   6  Pass 1  IDiag  1:
 E= -78.0561081489521     Delta-E=       -0.000000000008 Rises=F Damp=F
 DIIS: error= 8.08D-08 at cycle   6 NSaved=   6.
 NSaved= 6 IEnMin= 6 EnMin= -78.0561081489521     IErMin= 6 ErrMin= 8.08D-08
 ErrMax= 8.08D-08 EMaxC= 1.00D-01 BMatC= 1.17D-13 BMatP= 2.77D-12
 IDIUse=1 WtCom= 1.00D+00 WtEn= 0.00D+00
 Coeff-Com: -0.149D-03 0.158D-03 0.149D-01-0.773D-01-0.126D+00 0.119D+01
 Coeff:     -0.149D-03 0.158D-03 0.149D-01-0.773D-01-0.126D+00 0.119D+01
 Gap=     0.430 Goal=   None    Shift=    0.000
 RMSDP=1.18D-08 MaxDP=1.26D-07 DE=-7.87D-12 OVMax= 4.88D-07

 Cycle   7  Pass 1  IDiag  1:
 E= -78.0561081489524     Delta-E=        0.000000000000 Rises=F Damp=F
 DIIS: error= 1.02D-08 at cycle   7 NSaved=   7.
 NSaved= 7 IEnMin= 7 EnMin= -78.0561081489524     IErMin= 7 ErrMin= 1.02D-08
 ErrMax= 1.02D-08 EMaxC= 1.00D-01 BMatC= 2.05D-15 BMatP= 1.17D-13
 IDIUse=1 WtCom= 1.00D+00 WtEn= 0.00D+00
 Coeff-Com:  0.641D-04-0.635D-03 0.529D-03 0.103D-01 0.264D-03-0.209D+00
 Coeff-Com:  0.120D+01
 Coeff:      0.641D-04-0.635D-03 0.529D-03 0.103D-01 0.264D-03-0.209D+00
 Coeff:      0.120D+01
 Gap=     0.430 Goal=   None    Shift=    0.000
 RMSDP=2.57D-09 MaxDP=3.20D-08 DE=-3.69D-13 OVMax= 4.71D-08

 SCF Done:  E(RHF) =  -78.0561081490     A.U. after    7 cycles
             Convg  =    0.2566D-08             -V/T =  2.0005
             S**2   =   0.0000
 KE= 7.802065538076D+01 PE=-2.486233385130D+02 EE= 5.888109729860D+01
 Leave Link  502 at Wed Mar 22 13:02:47 2006, MaxMem=    6291456 cpu:       1.4
 (Enter /tftpboot/usr/local/g03/l701.exe)
 Compute integral first derivatives.
 ... and contract with generalized density number  0.
 Leave Link  701 at Wed Mar 22 13:02:47 2006, MaxMem=    6291456 cpu:       0.2
 (Enter /tftpboot/usr/local/g03/l702.exe)
 L702 exits ... SP integral derivatives will be done elsewhere.
 Leave Link  702 at Wed Mar 22 13:02:47 2006, MaxMem=    6291456 cpu:       0.0
 (Enter /tftpboot/usr/local/g03/l703.exe)
 Compute integral first derivatives, UseDBF=F.
 Integral derivatives from FoFDir, PRISM(SPDF).
 Petite list used in FoFDir.
 MinBra= 0 MaxBra= 2 Meth= 1.
 IRaf=       0 NMat=   1 IRICut=       1 DoRegI=T DoRafI=F ISym2E= 1 JSym2E=1.
 Leave Link  703 at Wed Mar 22 13:02:48 2006, MaxMem=    6291456 cpu:       1.1
 (Enter /tftpboot/usr/local/g03/l716.exe)
 Dipole        =-5.60724816D-17 0.00000000D+00 8.88178420D-16
 ***** Axes restored to original set *****
 -------------------------------------------------------------------
 Center     Atomic                   Forces (Hartrees/Bohr)
 Number     Number              X              Y              Z
 -------------------------------------------------------------------
    1          6           0.000000000    0.000000000   -0.000150448
    2          6           0.000000000    0.000000000    0.000150448
    3          1          -0.000015644    0.000000000   -0.000006140
    4          1           0.000015644    0.000000000   -0.000006140
    5          1           0.000015644    0.000000000    0.000006140
    6          1          -0.000015644    0.000000000    0.000006140
 -------------------------------------------------------------------
 Cartesian Forces:  Max     0.000150448 RMS     0.000050771
 Leave Link  716 at Wed Mar 22 13:02:48 2006, MaxMem=    6291456 cpu:       0.0
 (Enter /tftpboot/usr/local/g03/l103.exe)

 GradGradGradGradGradGradGradGradGradGradGradGradGradGradGradGradGradGrad
 Berny optimization.
 Internal  Forces:  Max     0.000138169 RMS     0.000036728
 Search for a local minimum.
 Step number   4 out of a maximum of 100
 All quantities printed in internal units (Hartrees-Bohrs-Radians)
 Update second derivatives using D2CorX and points  1  2  3  4
 Trust test= 9.24D-01 RLast= 3.38D-03 DXMaxT set to 3.00D-01
 The second derivative matrix:
                          R1        R2        R3        R4        R5
           R1           0.65887
           R2           0.00428   0.35818
           R3           0.00428   0.00889   0.35818
           R4           0.00428   0.00889   0.00889   0.35818
           R5           0.00428   0.00889   0.00889   0.00889   0.35818
           A1           0.00656  -0.00091  -0.00091  -0.00091  -0.00091
           A2           0.00656  -0.00091  -0.00091  -0.00091  -0.00091
           A3          -0.01311   0.00181   0.00181   0.00181   0.00181
           A4           0.00656  -0.00091  -0.00091  -0.00091  -0.00091
           A5           0.00656  -0.00091  -0.00091  -0.00091  -0.00091
           A6          -0.01311   0.00181   0.00181   0.00181   0.00181
           D1           0.00000   0.00000   0.00000   0.00000   0.00000
           D2           0.00000   0.00000   0.00000   0.00000   0.00000
           D3           0.00000   0.00000   0.00000   0.00000   0.00000
           D4           0.00000   0.00000   0.00000   0.00000   0.00000
                          A1        A2        A3        A4        A5
           A1           0.15665
           A2          -0.00335   0.15665
[...]
 Sum of electronic and zero-point Energies=            -78.295723
 Sum of electronic and thermal Energies=               -78.292625
 Sum of electronic and thermal Enthalpies=             -78.291681
 Sum of electronic and thermal Free Energies=          -78.316623
 
                     E (Thermal)             CV                S
                      KCal/Mol        Cal/Mol-Kelvin    Cal/Mol-Kelvin
 Total                   33.824              8.450             52.496
 Electronic               0.000              0.000              0.000
 Translational            0.889              2.981             35.927
 Rotational               0.889              2.981             15.880
 Vibrational             32.047              2.489              0.689
                       Q            Log10(Q)             Ln(Q)
 Total Bot       0.175823D-13        -13.754925        -31.671885
 Total V=0       0.410709D+10          9.613535         22.135982
 Vib (Bot)       0.457187D-23        -23.339906        -53.742119
 Vib (V=0)       0.106796D+01          0.028554          0.065747
 Electronic      0.100000D+01          0.000000          0.000000
 Translational   0.583338D+07          6.765920         15.579107
 Rotational      0.659266D+03          2.819061          6.491128
 
                                                              Etilene S0
                                                             IR Spectrum
 
     3 3 33                                                         1      1   1     1      1                                        
     2 2 11                                                         6      4   3     2      0   9   8  7                             
     9 6 97                                                         7      8   8     3      5   5   2  5                             
     2 5 35                                                         5      2   2     8      8   7   9  6                             
 
     X    X                                                                X                    X   X                                
     X    X                                                                                     X                                    
     X                                                                                          X                                    
                                                                                                X                                    
                                                                                                X                                    
                                                                                                X                                    
                                                                                                X                                    
                                                                                                X                                    
                                                                                                X                                    
                                                                                                X                                    
                                                                                                X                                    
                                                                                                X                                    
                                                                                                X                                    
                                                                                                X                                    
                                                                                                X                                    
                                                                                                X                                    
                                                                                                X                                    
                                                                                                X                                    
                                                                                                X                                    
                                                                                                X                                    
 
 ***** Axes restored to original set *****
 -------------------------------------------------------------------
 Center     Atomic                   Forces (Hartrees/Bohr)
 Number     Number              X              Y              Z
 -------------------------------------------------------------------
    1          6           0.000000000    0.000000000   -0.000002230
    2          6           0.000000000    0.000000000    0.000002230
    3          1           0.000000191    0.000000000    0.000000209
    4          1          -0.000000191    0.000000000    0.000000209
    5          1          -0.000000191    0.000000000   -0.000000209
    6          1           0.000000191    0.000000000   -0.000000209
 -------------------------------------------------------------------
 Cartesian Forces:  Max     0.000002230 RMS     0.000000755
 Force constants in Cartesian coordinates: 
                1             2             3             4             5
      1  0.653960D+00
      2  0.000000D+00  0.770894D-01
      3  0.000000D+00  0.000000D+00  0.846150D+00
      4 -0.110903D+00  0.000000D+00  0.000000D+00  0.653960D+00
      5  0.000000D+00 -0.173108D-01  0.000000D+00  0.000000D+00  0.770894D-01
      6  0.000000D+00  0.000000D+00 -0.556942D+00  0.000000D+00  0.000000D+00
      7  0.347870D-02  0.000000D+00  0.473620D-02 -0.275008D+00  0.000000D+00
      8  0.000000D+00 -0.215014D-02  0.000000D+00  0.000000D+00 -0.277392D-01
      9 -0.299142D-01  0.000000D+00 -0.123270D-01 -0.124782D+00  0.000000D+00
     10  0.347870D-02  0.000000D+00 -0.473620D-02 -0.275008D+00  0.000000D+00
     11  0.000000D+00 -0.215014D-02  0.000000D+00  0.000000D+00 -0.277392D-01
     12  0.299142D-01  0.000000D+00 -0.123270D-01  0.124782D+00  0.000000D+00
     13 -0.275008D+00  0.000000D+00 -0.130132D+00  0.347870D-02  0.000000D+00
     14  0.000000D+00 -0.277392D-01  0.000000D+00  0.000000D+00 -0.215014D-02
     15 -0.124782D+00  0.000000D+00 -0.132277D+00 -0.299142D-01  0.000000D+00
     16 -0.275008D+00  0.000000D+00  0.130132D+00  0.347870D-02  0.000000D+00
     17  0.000000D+00 -0.277392D-01  0.000000D+00  0.000000D+00 -0.215014D-02
     18  0.124782D+00  0.000000D+00 -0.132277D+00  0.299142D-01  0.000000D+00
                6             7             8             9            10
      6  0.846150D+00
      7 -0.130132D+00  0.283752D+00
      8  0.000000D+00  0.000000D+00  0.216109D-01
      9 -0.132277D+00  0.139230D+00  0.000000D+00  0.138577D+00
     10  0.130132D+00 -0.151953D-01  0.000000D+00  0.145165D-01  0.283752D+00
     11  0.000000D+00  0.000000D+00  0.269952D-03  0.000000D+00  0.000000D+00
     12 -0.132277D+00 -0.145165D-01  0.000000D+00  0.984503D-02 -0.139230D+00
     13  0.473620D-02  0.167910D-02  0.000000D+00  0.815734D-03  0.129278D-02
     14  0.000000D+00  0.000000D+00  0.146748D-01  0.000000D+00  0.000000D+00
     15 -0.123270D-01  0.815734D-03  0.000000D+00 -0.511317D-02  0.134152D-03
     16 -0.473620D-02  0.129278D-02  0.000000D+00  0.134152D-03  0.167910D-02
     17  0.000000D+00  0.000000D+00 -0.666633D-02  0.000000D+00  0.000000D+00
     18 -0.123270D-01 -0.134152D-03  0.000000D+00  0.129452D-02 -0.815734D-03
               11            12            13            14            15
     11  0.216109D-01
     12  0.000000D+00  0.138577D+00
     13  0.000000D+00 -0.134152D-03  0.283752D+00
     14 -0.666633D-02  0.000000D+00  0.000000D+00  0.216109D-01
     15  0.000000D+00  0.129452D-02  0.139230D+00  0.000000D+00  0.138577D+00
     16  0.000000D+00 -0.815734D-03 -0.151953D-01  0.000000D+00  0.145165D-01
     17  0.146748D-01  0.000000D+00  0.000000D+00  0.269952D-03  0.000000D+00
     18  0.000000D+00 -0.511317D-02 -0.145165D-01  0.000000D+00  0.984504D-02
               16            17            18
     16  0.283752D+00
     17  0.000000D+00  0.216109D-01
     18 -0.139230D+00  0.000000D+00  0.138577D+00
 Force constants in internal coordinates: 
                1             2             3             4             5
      1  0.613887D+00
      2  0.378801D-02  0.368178D+00
      3  0.378801D-02  0.831454D-03  0.368178D+00
      4  0.378801D-02 -0.560749D-03  0.709730D-03  0.368178D+00
      5  0.378801D-02  0.709730D-03 -0.560749D-03  0.831454D-03  0.368178D+00
      6  0.113518D-01  0.489827D-02 -0.116936D-01  0.436528D-02 -0.329975D-02
      7  0.113518D-01 -0.116936D-01  0.489827D-02 -0.329975D-02  0.436528D-02
      8 -0.227036D-01  0.679531D-02  0.679531D-02 -0.106553D-02 -0.106553D-02
      9  0.113518D-01  0.436528D-02 -0.329975D-02  0.489827D-02 -0.116936D-01
     10  0.113518D-01 -0.329975D-02  0.436527D-02 -0.116936D-01  0.489827D-02
     11 -0.227036D-01 -0.106553D-02 -0.106553D-02  0.679531D-02  0.679531D-02
     12  0.000000D+00  0.000000D+00  0.000000D+00  0.000000D+00  0.000000D+00
     13  0.000000D+00  0.000000D+00  0.000000D+00  0.000000D+00  0.000000D+00
     14  0.000000D+00  0.000000D+00  0.000000D+00  0.000000D+00  0.000000D+00
     15  0.000000D+00  0.000000D+00  0.000000D+00  0.000000D+00  0.000000D+00
                6             7             8             9            10
      6  0.812969D-01
      7 -0.446688D-01  0.812969D-01
      8 -0.366281D-01 -0.366281D-01  0.732562D-01
      9  0.106667D-01 -0.913199D-02 -0.153474D-02  0.812969D-01
     10 -0.913199D-02  0.106667D-01 -0.153474D-02 -0.446688D-01  0.812969D-01
     11 -0.153474D-02 -0.153474D-02  0.306948D-02 -0.366281D-01 -0.366281D-01
     12  0.000000D+00  0.000000D+00  0.000000D+00  0.000000D+00  0.000000D+00
     13  0.000000D+00  0.000000D+00  0.000000D+00  0.000000D+00  0.000000D+00
     14  0.000000D+00  0.000000D+00  0.000000D+00  0.000000D+00  0.000000D+00
     15  0.000000D+00  0.000000D+00  0.000000D+00  0.000000D+00  0.000000D+00
               11            12            13            14            15
     11  0.732562D-01
     12  0.000000D+00  0.310774D-01
     13  0.000000D+00  0.817585D-02  0.188051D-01
     14  0.000000D+00  0.817585D-02 -0.245345D-02  0.188051D-01
     15  0.000000D+00 -0.147257D-01  0.817585D-02  0.817585D-02  0.310774D-01
 Leave Link  716 at Wed Mar 22 13:05:26 2006, MaxMem=    6291456 cpu:       0.0
 (Enter /tftpboot/usr/local/g03/l103.exe)

 GradGradGradGradGradGradGradGradGradGradGradGradGradGradGradGradGradGrad
 Berny optimization.
 Internal  Forces:  Max     0.000002648 RMS     0.000000700
 Search for a local minimum.
 Step number   1 out of a maximum of   2
 All quantities printed in internal units (Hartrees-Bohrs-Radians)
 Second derivative matrix not updated -- analytic derivatives used.
 The second derivative matrix:
                          R1        R2        R3        R4        R5
           R1           0.61389
           R2           0.00379   0.36818
           R3           0.00379   0.00083   0.36818
           R4           0.00379  -0.00056   0.00071   0.36818
           R5           0.00379   0.00071  -0.00056   0.00083   0.36818
           A1           0.01135   0.00490  -0.01169   0.00437  -0.00330
           A2           0.01135  -0.01169   0.00490  -0.00330   0.00437
           A3          -0.02270   0.00680   0.00680  -0.00107  -0.00107
           A4           0.01135   0.00437  -0.00330   0.00490  -0.01169
           A5           0.01135  -0.00330   0.00437  -0.01169   0.00490
           A6          -0.02270  -0.00107  -0.00107   0.00680   0.00680
           D1           0.00000   0.00000   0.00000   0.00000   0.00000
           D2           0.00000   0.00000   0.00000   0.00000   0.00000
           D3           0.00000   0.00000   0.00000   0.00000   0.00000
           D4           0.00000   0.00000   0.00000   0.00000   0.00000
                          A1        A2        A3        A4        A5
           A1           0.08130
           A2          -0.04467   0.08130
           A3          -0.03663  -0.03663   0.07326
           A4           0.01067  -0.00913  -0.00153   0.08130
           A5          -0.00913   0.01067  -0.00153  -0.04467   0.08130
           A6          -0.00153  -0.00153   0.00307  -0.03663  -0.03663
           D1           0.00000   0.00000   0.00000   0.00000   0.00000
           D2           0.00000   0.00000   0.00000   0.00000   0.00000
           D3           0.00000   0.00000   0.00000   0.00000   0.00000
           D4           0.00000   0.00000   0.00000   0.00000   0.00000
                          A6        D1        D2        D3        D4
           A6           0.07326
           D1           0.00000   0.03108
           D2           0.00000   0.00818   0.01881
           D3           0.00000   0.00818  -0.00245   0.01881
           D4           0.00000  -0.01473   0.00818   0.00818   0.03108
     Eigenvalues ---    0.02126   0.03270   0.04580   0.10458   0.10586
     Eigenvalues ---    0.11099   0.14313   0.36872   0.36892   0.36940
     Eigenvalues ---    0.36956   0.617151000.000001000.000001000.00000
 Angle between quadratic step and forces=   6.42 degrees.
 Linear search not attempted -- first point.
 Iteration  1 RMS(Cart)=  0.00000160 RMS(Int)=  0.00000000
 Iteration  2 RMS(Cart)=  0.00000000 RMS(Int)=  0.00000000
 Variable       Old X    -DE/DX   Delta X   Delta X   Delta X     New X
                                 (Linear)    (Quad)   (Total)
    R1        2.53062   0.00000   0.00000   0.00000   0.00000   2.53063
    R2        2.05106   0.00000   0.00000   0.00000   0.00000   2.05106
    R3        2.05106   0.00000   0.00000   0.00000   0.00000   2.05106
    R4        2.05106   0.00000   0.00000   0.00000   0.00000   2.05106
    R5        2.05106   0.00000   0.00000   0.00000   0.00000   2.05106
    A1        2.11885   0.00000   0.00000   0.00000   0.00000   2.11885
    A2        2.11885   0.00000   0.00000   0.00000   0.00000   2.11885
    A3        2.04549   0.00000   0.00000   0.00000   0.00000   2.04549
    A4        2.11885   0.00000   0.00000   0.00000   0.00000   2.11885
    A5        2.11885   0.00000   0.00000   0.00000   0.00000   2.11885
    A6        2.04549   0.00000   0.00000   0.00000   0.00000   2.04549
    D1        3.14159   0.00000   0.00000   0.00000   0.00000   3.14159
    D2        0.00000   0.00000   0.00000   0.00000   0.00000   0.00000
    D3        0.00000   0.00000   0.00000   0.00000   0.00000   0.00000
    D4        3.14159   0.00000   0.00000   0.00000   0.00000   3.14159
         Item               Value     Threshold  Converged?
 Maximum Force            0.000003     0.000015     YES
 RMS     Force            0.000001     0.000010     YES
 Maximum Displacement     0.000003     0.000060     YES
 RMS     Displacement     0.000002     0.000040     YES
 Predicted change in Energy=-6.068748D-12
 Optimization completed.
    -- Stationary point found.
                           ----------------------------
                           !   Optimized Parameters   !
                           ! (Angstroms and Degrees)  !
 --------------------------                            --------------------------
 ! Name  Definition              Value          Derivative Info.                !
 --------------------------------------------------------------------------------
 ! R1    R(1,2)                  1.3391         -DE/DX =    0.0                 !
 ! R2    R(1,5)                  1.0854         -DE/DX =    0.0                 !
 ! R3    R(1,6)                  1.0854         -DE/DX =    0.0                 !
 ! R4    R(2,3)                  1.0854         -DE/DX =    0.0                 !
 ! R5    R(2,4)                  1.0854         -DE/DX =    0.0                 !
 ! A1    A(2,1,5)              121.4011         -DE/DX =    0.0                 !
 ! A2    A(2,1,6)              121.4011         -DE/DX =    0.0                 !
 ! A3    A(5,1,6)              117.1977         -DE/DX =    0.0                 !
 ! A4    A(1,2,3)              121.4011         -DE/DX =    0.0                 !
 ! A5    A(1,2,4)              121.4011         -DE/DX =    0.0                 !
 ! A6    A(3,2,4)              117.1977         -DE/DX =    0.0                 !
 ! D1    D(5,1,2,3)            180.0            -DE/DX =    0.0                 !
 ! D2    D(5,1,2,4)              0.0            -DE/DX =    0.0                 !
 ! D3    D(6,1,2,3)              0.0            -DE/DX =    0.0                 !
 ! D4    D(6,1,2,4)            180.0            -DE/DX =    0.0                 !
 --------------------------------------------------------------------------------
 GradGradGradGradGradGradGradGradGradGradGradGradGradGradGradGradGradGrad

 Leave Link  103 at Wed Mar 22 13:05:26 2006, MaxMem=    6291456 cpu:       0.0
 (Enter /tftpboot/usr/local/g03/l9999.exe)
 1\1\GINC-ALPHA\Freq\RMP2-FC\6-311++G(d,p)\C2H4\LELLO\22-Mar-2006\0\\#P
  GEOM=ALLCHECK GUESS=READ SCRF=CHECK GENCHK RMP2(FC)/6-311++G(D,P) FRE
 Q\\Etilene S0\\0,1\C,0.,0.,-0.6695742668\C,0.,0.,0.6695742668\H,0.9264
 123412,0.,1.2350840067\H,-0.9264123412,0.,1.2350840067\H,-0.9264123412
 ,0.,-1.2350840067\H,0.9264123412,0.,-1.2350840067\\Version=x86-Linux-G
 03RevB.01\State=1-AG\HF=-78.0553575\MP2=-78.3465275\RMSD=3.728e-10\RMS
 F=7.552e-07\Dipole=0.,0.,0.\DipoleDeriv=0.1016747,0.,0.,0.,-0.3096032,
 0.,0.,0.,-0.0203565,0.1016747,0.,0.,0.,-0.3096032,0.,0.,0.,-0.0203564,
 -0.0508373,0.,-0.0676623,0.,0.1548016,0.,-0.0438433,0.,0.0101782,-0.05
 08373,0.,0.0676623,0.,0.1548016,0.,0.0438433,0.,0.0101782,-0.0508373,0
 .,-0.0676623,0.,0.1548016,0.,-0.0438433,0.,0.0101782,-0.0508373,0.,0.0
 676623,0.,0.1548016,0.,0.0438433,0.,0.0101782\Polar=21.4285068,0.,18.3
 918652,0.,0.,33.2474369\PG=D02H [C2"(C1.C1),SG(H4)]\NImag=0\\0.6539602
 8,0.,0.07708943,0.,0.,0.84614960,-0.11090256,0.,0.,0.65396028,0.,-0.01
 731082,0.,0.,0.07708943,0.,0.,-0.55694205,0.,0.,0.84614960,0.00347870,
 0.,0.00473620,-0.27500756,0.,-0.13013153,0.28375231,0.,-0.00215014,0.,
 0.,-0.02773916,0.,0.,0.02161092,-0.02991416,0.,-0.01232698,-0.12478237
 ,0.,-0.13227680,0.13923019,0.,0.13857740,0.00347870,0.,-0.00473620,-0.
 27500756,0.,0.13013153,-0.01519532,0.,0.01451645,0.28375231,0.,-0.0021
 5014,0.,0.,-0.02773916,0.,0.,0.00026995,0.,0.,0.02161092,0.02991416,0.
 ,-0.01232698,0.12478238,0.,-0.13227680,-0.01451645,0.,0.00984503,-0.13
 923019,0.,0.13857740,-0.27500756,0.,-0.13013153,0.00347870,0.,0.004736
 20,0.00167910,0.,0.00081573,0.00129278,0.,-0.00013415,0.28375231,0.,-0
 .02773916,0.,0.,-0.00215014,0.,0.,0.01467476,0.,0.,-0.00666633,0.,0.,0
 .02161092,-0.12478237,0.,-0.13227680,-0.02991416,0.,-0.01232698,0.0008
 1573,0.,-0.00511317,0.00013415,0.,0.00129452,0.13923019,0.,0.13857740,
 -0.27500756,0.,0.13013153,0.00347870,0.,-0.00473620,0.00129278,0.,0.00
 013415,0.00167910,0.,-0.00081573,-0.01519532,0.,0.01451645,0.28375231,
 0.,-0.02773916,0.,0.,-0.00215014,0.,0.,-0.00666633,0.,0.,0.01467476,0.
 ,0.,0.00026995,0.,0.,0.02161092,0.12478238,0.,-0.13227680,0.02991416,0
 .,-0.01232698,-0.00013415,0.,0.00129452,-0.00081573,0.,-0.00511317,-0.
 01451645,0.,0.00984504,-0.13923019,0.,0.13857740\\0.,0.,0.00000223,0.,
 0.,-0.00000223,-0.00000019,0.,-0.00000021,0.00000019,0.,-0.00000021,0.
 00000019,0.,0.00000021,-0.00000019,0.,0.00000021\\\@


 CONFIDENCE: THAT QUIET ASSURED FEELING YOU HAVE
 JUST BEFORE YOU FALL FLAT ON YOUR FACE.
 Job cpu time:  0 days  0 hours  1 minutes 26.9 seconds.
 File lengths (MBytes):  RWF=    157 Int=      0 D2E=      0 Chk=     11 Scr=      1
 Normal termination of Gaussian 03 at Wed Mar 22 13:05:27 2006.
